/*--------------------------------*- C++ -*----------------------------------*\
| =========                 |                                                 |
| \\      /  F ield         | OpenFOAM: The Open Source CFD Toolbox           |
|  \\    /   O peration     | Version:  2.3.0                                 |
|   \\  /    A nd           | Web:      www.OpenFOAM.org                      |
|    \\/     M anipulation  |                                                 |
\*---------------------------------------------------------------------------*/
FoamFile
{
    version     2.0;
    format      ascii;
    class       volScalarField;
    location    "25000";
    object      k;
}
// * * * * * * * * * * * * * * * * * * * * * * * * * * * * * * * * * * * * * //

dimensions      [0 2 -2 0 0 0 0];

internalField   nonuniform List<scalar> 
10000
(
0.0032032272310651
0.00277632577648824
0.00243894496883339
0.0021631093978608
0.00194420610178849
0.00177217689080987
0.00164729754894024
0.00156573314462049
0.0015290959653933
0.00153524441500556
0.00158403542970291
0.00167049622329047
0.00178929430896265
0.00192858187982327
0.00207197560139687
0.00220463720589706
0.00231838174570956
0.0024105298071679
0.00248218154033669
0.00253610868231615
0.0025757321380305
0.00260426881969303
0.00262453739864272
0.00263877696947028
0.00264873685982066
0.00265570187579064
0.00266061488234882
0.00266413323985509
0.00266671839525999
0.00266867832184036
0.00267022136365604
0.0026714808961229
0.00267254433321134
0.00267346554128623
0.0026742791366739
0.00267500610831501
0.00267566018371205
0.00267625028249194
0.00267678279639889
0.00267726286674499
0.00267769464035576
0.00267808229581478
0.00267842929675878
0.0026787395503698
0.00267901613430148
0.00267926263261622
0.00267948167383361
0.00267967639459298
0.00267984894724379
0.00268000195499289
0.00268013709569873
0.00268025653629106
0.00268036161285782
0.00268045408405743
0.00268053503566222
0.00268060588688902
0.00268066759967485
0.00268072132977134
0.00268076792097778
0.0026808083324036
0.00268084333170757
0.00268087374573383
0.00268090017484846
0.00268092334866378
0.00268094373785277
0.00268096193624584
0.00268097806319483
0.0026809926326436
0.00268100568884124
0.0026810176491599
0.00268102838614052
0.00268103826276782
0.00268104709723275
0.00268105525926107
0.00268106255667155
0.00268106937668868
0.002681075430701
0.0026810811000513
0.00268108610876995
0.00268109080753405
0.00268109498285366
0.00268109888183411
0.00268110235242885
0.00268110553962883
0.00268110836514558
0.00268111092284687
0.00268111314434181
0.00268111517795179
0.00268111690704524
0.0026811187259384
0.00268112067718484
0.00268112196503311
0.00268112122786376
0.0026811185875531
0.00268111363596484
0.0026811073954898
0.00268109998091405
0.00268109265445459
0.00268108561316586
0.00268107997077007
0.00320189884583675
0.00277523857200238
0.00243777565252451
0.0021623149033588
0.00194440331591648
0.00177413511285412
0.00165193220678041
0.00157405649236731
0.00154220682606396
0.00155407700346453
0.00160924057462166
0.00170210835396029
0.00182672699773732
0.00197041783819917
0.00211626559894587
0.0022497407759338
0.00236324902235113
0.00245462596600195
0.00252529549966385
0.00257822306646029
0.00261691794991015
0.00264463773045301
0.00266420469000659
0.00267785265409341
0.0026873153356703
0.00269386447363777
0.00269842785441683
0.00270165200952413
0.00270398764638557
0.00270573539469418
0.00270709663438042
0.00270820003887752
0.00270912858913154
0.00270993312434298
0.0027106453758553
0.00271128430610822
0.00271186168459054
0.00271238500818794
0.00271285927826177
0.002713288596173
0.00271367608553785
0.00271402514501929
0.0027143384676336
0.0027146193692493
0.00271487033924052
0.00271509450989332
0.00271529405998556
0.00271547178264834
0.00271562948742138
0.00271576953871805
0.00271589335306713
0.00271600290420607
0.0027160993323556
0.0027161842498956
0.00271625859560706
0.00271632367682981
0.00271638034860722
0.0027164296790327
0.00271647243112028
0.00271650949638482
0.00271654158078868
0.00271656945973572
0.00271659368047873
0.00271661493606726
0.00271663365366763
0.00271665039974842
0.00271666524947331
0.00271667870463577
0.00271669077695739
0.00271670187618415
0.00271671184620084
0.00271672104813147
0.00271672927669553
0.00271673690685428
0.00271674372392652
0.00271675012420057
0.00271675579514696
0.00271676112923319
0.00271676583172763
0.00271677026194445
0.00271677419410561
0.00271677787733426
0.00271678115288222
0.00271678416530262
0.00271678683275367
0.00271678924946561
0.00271679134186103
0.00271679326440134
0.00271679488940612
0.00271679663603447
0.00271679850470059
0.0027167996652774
0.00271679875225384
0.00271679595112565
0.00271679085749894
0.002716784548481
0.00271677712247473
0.00271676986902496
0.00271676295529427
0.00271675750323236
0.00320136486192826
0.00277381059535374
0.00243600996563344
0.00216123335866643
0.00194539235813903
0.00177879875650436
0.00166222760623055
0.00159206922599912
0.00157018865494206
0.00159384093958366
0.00166196396760062
0.00176765867691289
0.00190372499729831
0.00205587957382717
0.00220630569346591
0.0023411878664152
0.0024541113835839
0.0025438927900429
0.00261258427592441
0.00266351479307199
0.00270036550809871
0.0027264663078443
0.00274464684205657
0.0027571269217919
0.00276561012014164
0.00277134057485798
0.00277521687343503
0.00277786320739027
0.00277970947689273
0.00278104128628448
0.00278204652957189
0.00278284430827339
0.00278350902709439
0.00278408539454889
0.00278459956556474
0.00278506642373677
0.00278549395506653
0.00278588681200213
0.00278624730767834
0.00278657747754172
0.00278687846404894
0.00278715212512126
0.0027873996585999
0.00278762321756276
0.00278782414734228
0.00278800469501691
0.00278816616267873
0.00278831067253724
0.00278843936420962
0.00278855409824326
0.00278865577911081
0.00278874600542953
0.00278882553273745
0.00278889568988297
0.00278895712636445
0.002789010932944
0.00278905775395552
0.00278909848785215
0.00278913373824017
0.00278916426596966
0.00278919065478214
0.00278921358131158
0.00278923348684277
0.00278925099503887
0.00278926644578478
0.00278928035455233
0.00278929270727404
0.0027893039854611
0.00278931413376973
0.00278932355043164
0.00278933202030057
0.00278933990409346
0.00278934694733282
0.00278935353886046
0.00278935941610143
0.00278936499699417
0.00278936991838582
0.00278937459828071
0.00278937870168918
0.00278938260806188
0.00278938606471434
0.00278938932702438
0.00278939222125965
0.00278939489279499
0.00278939725128771
0.00278939939313855
0.0027894012331037
0.00278940293939371
0.00278940436070875
0.00278940596750217
0.00278940766980954
0.00278940857938894
0.00278940732155854
0.00278940421043434
0.00278939884413739
0.00278939241048465
0.00278938497000219
0.0027893778689574
0.00278937121103298
0.00278936613385952
0.0032003831856039
0.0027716861628075
0.00243345170312108
0.00215982376817648
0.0019471260837936
0.00178606720967263
0.00167785322993563
0.0016190586272183
0.00161163285064018
0.00165208202458275
0.00173826570545714
0.0018614137258205
0.00201260349130727
0.00217553075647982
0.00233147941307763
0.00246781796477739
0.00257970747739346
0.00266721492998272
0.0027331903572491
0.00278141666507101
0.00281578927723455
0.00283972368593931
0.00285605506648666
0.00286698081345042
0.00287416319545233
0.00287880810870274
0.00288177495036511
0.00288365748728822
0.00288485784437839
0.00288564128423711
0.00288617774909881
0.00288657343129696
0.00288689134901157
0.00288716797768833
0.00288742209060437
0.00288766312246944
0.00288789406638182
0.00288811579674219
0.00288832708791897
0.00288852724620483
0.00288871480968124
0.00288888961054721
0.00288905088151075
0.00288919925288536
0.00288933456538648
0.00288945791026777
0.00288956943527853
0.00288967038905412
0.0028897610275205
0.00288984255730312
0.00288991520571298
0.00288998008596083
0.00289003744376827
0.00289008824155811
0.0028901327446898
0.00289017176431798
0.00289020566461221
0.00289023512484291
0.0028902605364638
0.00289028249181123
0.00289030141099637
0.00289031784464925
0.00289033209054733
0.0028903446856876
0.00289035585077768
0.00289036603939012
0.00289037511442842
0.00289038353801949
0.00289039115982222
0.00289039836965726
0.00289040486894878
0.00289041102421011
0.00289041650998708
0.00289042174049233
0.00289042638260926
0.00289043089042154
0.00289043482668262
0.0028904386503704
0.00289044196673699
0.00289044518782816
0.00289044802030565
0.00289045073183465
0.00289045312576815
0.00289045535143845
0.00289045730461709
0.00289045908725429
0.00289046059581854
0.00289046202011078
0.00289046317373695
0.00289046460015688
0.00289046607235365
0.00289046664549407
0.00289046493101869
0.00289046142079627
0.00289045570674576
0.00289044912909771
0.00289044168709384
0.00289043480723559
0.00289042850033776
0.00289042392763774
0.00319896492637289
0.0027689126492895
0.00243024773256084
0.00215832640263807
0.00194993279849349
0.0017963238560382
0.00169919113761585
0.00165526850920801
0.00166639246295001
0.00172788647090916
0.00183604447771269
0.00197975640459494
0.00214809283270796
0.00232260798173367
0.00248403735602462
0.00262141161305806
0.00273170763146761
0.0028163564777938
0.00287906929389572
0.00292410699992844
0.00295558825498488
0.00297701027280111
0.00299120723329717
0.00300034454668541
0.00300603480088402
0.00300943736779608
0.00301136595415569
0.00301237816630518
0.00301284404185151
0.00301300487342756
0.00301300996652958
0.00301295038629024
0.00301287611687454
0.0030128140430689
0.00301277452540739
0.00301276069618587
0.00301276988188888
0.00301279862069688
0.00301284168321734
0.00301289526619771
0.00301295496559373
0.00301301832047636
0.00301308234337003
0.00301314595011728
0.00301320727961489
0.00301326612695136
0.00301332133201374
0.00301337316751782
0.00301342088572585
0.00301346496604269
0.00301350486396606
0.00301354115504939
0.00301357350245496
0.00301360246326462
0.0030136278628582
0.00301365020341635
0.00301366952792589
0.00301368627295082
0.00301370058654465
0.0030137128748542
0.00301372336872366
0.00301373248189551
0.00301374034331432
0.00301374739890844
0.00301375372780231
0.0030137597214597
0.00301376509446946
0.00301377029841404
0.00301377506491888
0.00301377978463864
0.00301378405573983
0.00301378826080131
0.00301379198451561
0.00301379568078552
0.00301379892493062
0.00301380222396434
0.00301380504501816
0.00301380790488127
0.00301381033071374
0.00301381278073588
0.0030138149078145
0.00301381699926883
0.00301381882809732
0.00301382055203581
0.00301382204735415
0.00301382342624891
0.00301382455992455
0.00301382566829629
0.0030138265185531
0.00301382774571897
0.00301382893942212
0.00301382912196476
0.0030138268853189
0.0030138229364424
0.00301381684533276
0.00301381013567758
0.00301380271968105
0.00301379612313429
0.00301379023769877
0.00301378625509411
0.00319719655360101
0.00276555715638517
0.00242657461660094
0.00215702374366952
0.00195423343463699
0.00181010283056875
0.00172685136832301
0.00170122620278238
0.00173463259853382
0.00182065054561543
0.00195353078270514
0.00211948836643414
0.00230552161068295
0.00249118908158664
0.00265729544261658
0.00279493748016917
0.00290300916639002
0.00298430118629594
0.00304336640827107
0.00308491731262384
0.00311327780810745
0.00313200970073873
0.00314393537224114
0.00315117794279261
0.0031552938953881
0.00315738986540932
0.00315823007240982
0.00315833227231148
0.00315803222197219
0.0031575450972035
0.0031569983271153
0.00315646662066499
0.00315598623486225
0.00315557376555168
0.0031552307688625
0.00315495367614635
0.00315473391713066
0.00315456346316213
0.00315443293531241
0.00315433528449323
0.00315426306284922
0.0031542114349002
0.00315417511544173
0.00315415125682617
0.00315413623385737
0.00315412851486422
0.00315412558091212
0.00315412671061475
0.00315413011014701
0.00315413552260651
0.00315414159533095
0.00315414836240572
0.00315415487522542
0.00315416128318158
0.00315416694840592
0.0031541720626335
0.00315417633061102
0.00315417994400324
0.00315418279451623
0.00315418510084296
0.00315418689242558
0.00315418844859803
0.00315418971444759
0.00315419105102798
0.00315419238160021
0.00315419404395417
0.00315419558616081
0.0031541974646174
0.00315419927404696
0.00315420142010068
0.00315420338185893
0.0031542055713204
0.00315420746701889
0.00315420957919188
0.00315421137193152
0.00315421342393834
0.00315421508674374
0.00315421695296293
0.00315421845430764
0.00315422010966682
0.00315422150561834
0.00315422295738522
0.00315422420079507
0.0031542254073106
0.00315422642805765
0.00315422739123005
0.00315422813542687
0.00315422891999406
0.00315422945417485
0.0031542304805044
0.00315423136137105
0.00315423112600056
0.00315422833976594
0.00315422395246314
0.00315421749088179
0.00315421068485548
0.00315420333231338
0.00315419707385843
0.00315419165880169
0.00315418831555949
0.00319508524364501
0.00276166003928789
0.00242259268857225
0.00215620965094521
0.0019604920600933
0.00182802591371039
0.00176156273107854
0.00175757755818668
0.00181659173263397
0.00192979603695657
0.00208899396234993
0.00227757664489299
0.0024806185733548
0.00267605605365623
0.00284552848340689
0.00298246512349887
0.00308766334486801
0.00316518731413269
0.00322035508043019
0.0032582707098899
0.00328342646676846
0.00329942308655351
0.00330905713105709
0.00331439908785119
0.00331694420878155
0.00331774202641182
0.00331750540461921
0.00331671030034532
0.00331565754609051
0.00331453531323787
0.0033134489895578
0.00331245654258785
0.00331158052635101
0.00331082711105734
0.00331018914016655
0.00330965632946512
0.00330921431773931
0.00330885055103475
0.00330855159683328
0.00330830722331099
0.0033081070156782
0.00330794383213062
0.00330781014636213
0.00330770141157259
0.00330761227829595
0.00330753994384124
0.0033074805571934
0.00330743245050256
0.00330739280022616
0.00330736065406889
0.00330733385916184
0.00330731194192265
0.00330729334599265
0.00330727783902207
0.00330726432160984
0.0033072526951188
0.00330724232753899
0.00330723317970874
0.00330722488839045
0.00330721749597165
0.00330721082899778
0.0033072050450607
0.00330719989834124
0.00330719567936837
0.00330719214763025
0.00330718960214038
0.00330718741171735
0.00330718605793422
0.0033071849829168
0.00330718462512321
0.00330718433193104
0.00330718456029623
0.00330718466831444
0.00330718524106902
0.00330718561270186
0.00330718645400378
0.00330718698201105
0.00330718788417305
0.00330718848005743
0.00330718936451285
0.00330719004584792
0.00330719087603022
0.00330719154745056
0.00330719225125341
0.00330719280777398
0.00330719336786223
0.00330719372969852
0.0033071942022966
0.00330719442488001
0.00330719526141303
0.0033071958078617
0.00330719514905461
0.00330719181489874
0.00330718701841143
0.00330718021794252
0.00330717336620439
0.0033071661190516
0.00330716024500409
0.00330715533073197
0.00330715264768943
0.00319261850046641
0.00275726137476769
0.00241846778636193
0.00215620391439322
0.00196922128251073
0.00185078979208198
0.00180412813622222
0.00182499654161833
0.00191245088696052
0.00205462928351726
0.00224062772773967
0.00245108121219463
0.00266947334575143
0.00287266493537069
0.0030439206710636
0.00317910168386917
0.00328080927291865
0.00335424318973308
0.00340537587541457
0.00343962410978726
0.00346160083227414
0.00347491569916139
0.00348232378462784
0.00348583312184034
0.00348687362501983
0.00348643489620679
0.00348517794592628
0.00348353635434319
0.00348177648445503
0.00348005960163225
0.00347846965368068
0.00347704814338725
0.00347580445973271
0.00347473465014503
0.00347382328327229
0.0034730536422303
0.00347240592012306
0.00347186328679184
0.00347140852321228
0.00347102842732273
0.00347070981988755
0.00347044343134168
0.00347021964484398
0.00347003236120509
0.00346987461788189
0.00346974245902281
0.0034696307826012
0.00346953706898533
0.00346945752237179
0.00346939057155571
0.00346933330245415
0.00346928479427054
0.00346924291030896
0.0034692070824144
0.00346917576907482
0.00346914861653815
0.00346912467078993
0.0034691036872197
0.00346908505945699
0.00346906867329216
0.00346905415864888
0.0034690415711364
0.00346903047271646
0.00346902110347698
0.00346901305584068
0.00346900660931855
0.00346900094473682
0.00346899659265289
0.00346899282915423
0.00346899014571082
0.00346898774783762
0.00346898615429978
0.00346898459002835
0.00346898373475822
0.00346898277461247
0.00346898249404145
0.00346898195749465
0.00346898196691107
0.00346898171354088
0.00346898188397979
0.00346898189680461
0.00346898214978309
0.00346898228618092
0.00346898252309204
0.00346898264451489
0.00346898283124858
0.00346898283284114
0.00346898301901469
0.00346898294628953
0.00346898361231995
0.0034689838137307
0.00346898274301892
0.00346897888338431
0.00346897372622776
0.00346896663373495
0.00346895979439678
0.00346895269438495
0.00346894724185283
0.00346894284312873
0.00346894081974237
0.00318978543756917
0.00275241099917757
0.00241438140964939
0.00215735801552681
0.00198098347173766
0.00187915175873551
0.00185538235651894
0.00190410668052694
0.00202223650550884
0.00219425923900577
0.00240650694941354
0.00263714338906087
0.00286853154109559
0.0030771141922549
0.00324849026110549
0.00338088817576733
0.00347855906241621
0.00354767105499427
0.00359472396178477
0.00362536078736787
0.00364426348512554
0.00365501961289268
0.00366032700548448
0.00366212237039578
0.00366176713894215
0.00366018939512645
0.00365799879401861
0.00365558697593575
0.00365318705228687
0.00365093419806302
0.00364889204895881
0.00364708639887591
0.00364551436042022
0.00364416247701016
0.00364300771421272
0.00364202741614624
0.00364119683491999
0.00364049525732961
0.00363990205701089
0.0036394013755573
0.00363897755285998
0.00363861944349253
0.00363831555064459
0.00363805842331264
0.00363783964240269
0.00363765425676329
0.00363749602893575
0.00363736171216002
0.00363724662190238
0.00363714866703383
0.00363706423103907
0.00363699202309022
0.00363692936862383
0.0036368754220872
0.00363682823078489
0.0036367872305249
0.00363675116877987
0.00363671962776202
0.00363669177671444
0.00363666736971305
0.00363664585158823
0.00363662720004164
0.00363661078737734
0.00363659682683854
0.00363658474359983
0.00363657481947845
0.00363656604140934
0.00363655901468486
0.00363655283749147
0.0036365480757396
0.00363654378479486
0.00363654056256798
0.00363653748937191
0.0036365353599976
0.00363653319507787
0.00363653191482538
0.00363653041379506
0.00363652962818924
0.00363652860540279
0.0036365281395512
0.0036365275487416
0.0036365272853205
0.00363652693850952
0.00363652675750217
0.00363652648475155
0.00363652633850748
0.00363652601135501
0.0036365259452004
0.00363652560079098
0.00363652612020272
0.00363652597499701
0.00363652451667606
0.00363652016778544
0.0036365147098915
0.00363650737981667
0.00363650061267742
0.00363649369797021
0.00363648869471702
0.00363648481332284
0.00363648343351693
0.00318657952851099
0.00274717073960152
0.0024105342168984
0.00216005700424796
0.00199638890947813
0.0019139127280339
0.00191614769760078
0.00199541001043766
0.00214575031898862
0.0023475600790229
0.00258458989879721
0.00283300501186111
0.00307459919912154
0.00328611736231749
0.00345599542962167
0.00358467450446276
0.00367785929909293
0.00374250569558302
0.00378551062477065
0.00381265721993695
0.00382864580315242
0.00383701221641609
0.00384038246659884
0.00384061432455434
0.00383899857433839
0.00383640118890519
0.00383338170812045
0.00383029098716769
0.00382733062252964
0.00382461100161769
0.00382217692094182
0.00382003954080408
0.00381818481046927
0.0038165905947241
0.0038152270733863
0.00381406627943321
0.00381307912473767
0.00381224149481642
0.00381152980034219
0.0038109259005387
0.0038104119837855
0.00380997532258442
0.00380960278388486
0.00380928579522832
0.00380901466222825
0.00380878361786879
0.0038085854237119
0.00380841624629553
0.00380827061017218
0.00380814601490731
0.00380803821129974
0.00380794562413236
0.00380786509196259
0.00380779555643682
0.00380773469126279
0.00380768177105172
0.00380763527344288
0.00380759464299407
0.00380755884744415
0.00380752753644446
0.00380749998451067
0.00380747611747885
0.00380745512305304
0.00380743721281879
0.0038074216464992
0.00380740873101154
0.00380739725552649
0.00380738792638487
0.00380737965322451
0.00380737309800453
0.00380736715914206
0.0038073625307428
0.00380735813824354
0.00380735491172787
0.00380735168963982
0.0038073495498614
0.00380734720072587
0.00380734573193821
0.00380734403246361
0.00380734301904538
0.00380734189966731
0.00380734118921532
0.00380734041901815
0.00380733987590342
0.00380733925624424
0.00380733882292159
0.00380733820356423
0.00380733792361465
0.00380733733504679
0.00380733773347794
0.00380733724727209
0.00380733543472044
0.00380733064104581
0.00380732494789095
0.00380731743664385
0.00380731079925157
0.00380730410229299
0.00380729956715098
0.00380729619428824
0.00380729543111699
0.00318299891684758
0.00274161530212966
0.00240714806407779
0.00216472105692109
0.00201609288759002
0.00195589759958408
0.00198718770386429
0.00209922545079702
0.00228252656617609
0.00251317072061559
0.00277275084501754
0.00303604272772315
0.00328484760435866
0.00349693814660643
0.00366383304546004
0.00378799272420729
0.00387635169002207
0.0039364719030176
0.00397552284803861
0.00399934732023973
0.00401261764162166
0.00401879128516671
0.00402040984172895
0.00401924598234043
0.00401651867758592
0.00401303199940546
0.0040092971770224
0.00400562592370455
0.00400219039895373
0.00399907781138776
0.00399631580129105
0.00399390216187536
0.00399181292077832
0.00399001820750027
0.00398848231163925
0.00398717265493964
0.00398605645746095
0.00398510672919602
0.00398429739176286
0.00398360842320549
0.00398302020885506
0.00398251875004661
0.00398208953423336
0.00398172310890373
0.00398140869494005
0.00398113989618774
0.00398090861490192
0.00398071057611309
0.00398053961685217
0.00398039294119168
0.00398026574144908
0.00398015624568439
0.003980060860283
0.00397997837996374
0.00397990614553685
0.00397984332040987
0.00397978814365326
0.00397973995812517
0.00397969755496386
0.00397966050697267
0.00397962793489209
0.00397959973882739
0.0039795749285058
0.00397955373906273
0.00397953526778131
0.00397951986921628
0.00397950613239928
0.00397949489040937
0.00397948485479559
0.00397947680447316
0.00397946947538112
0.00397946367390895
0.00397945816161931
0.003979454023206
0.00397944989932396
0.00397944704650224
0.00397944397182395
0.00397944193652659
0.00397943965797185
0.00397943818929966
0.00397943662021564
0.00397943553477925
0.00397943440397355
0.00397943355669306
0.00397943263973035
0.0039794319669144
0.0039794310937837
0.00397943063991527
0.00397942983614449
0.00397943013894869
0.00397942932287454
0.00397942719553842
0.00397942200564155
0.00397941614410184
0.00397940850626885
0.00397940205150088
0.00397939559793792
0.00397939154160022
0.00397938866002417
0.00397938847927494
0.00317904714323601
0.00273583303276422
0.00240446786154696
0.00217180714937382
0.0020407913259482
0.00200593170980133
0.00206915954820116
0.00221563948364849
0.00243181629252535
0.00268952312210324
0.00296883026768346
0.00324380639452918
0.00349681369223896
0.00370731530220213
0.00386994193996295
0.00398893994661159
0.00407224558538872
0.00412785423684299
0.00416309467134461
0.00418379756425218
0.00419456698402924
0.004198759205724
0.00419882127154729
0.00419643610883635
0.00419275068832306
0.00418850804320574
0.00418417332783713
0.00418002107501474
0.00417619629686934
0.00417276480248902
0.00416973886948713
0.00416710428459899
0.0041648284531644
0.00416287476307147
0.00416120253727722
0.00415977531091311
0.00415855727248913
0.00415751909252275
0.00415663268086119
0.00415587653825016
0.00415522959517408
0.00415467689155544
0.00415420279063092
0.00415379719861054
0.00415344844048536
0.00415314967463676
0.0041528920845959
0.00415267109593014
0.00415247996094218
0.00415231569915033
0.00415217301842888
0.0041520500352021
0.00415194277868408
0.00415184996030238
0.00415176862923655
0.00415169788571545
0.0041516357621919
0.00415158153424078
0.00415153384175377
0.00415149220708701
0.0041514556143859
0.00415142396293481
0.00415139609198973
0.00415137228434934
0.00415135147854414
0.00415133409817463
0.00415131853084583
0.00415130576059486
0.00415129429240329
0.00415128504173987
0.00415127657762648
0.00415126983339756
0.00415126339904127
0.00415125853171305
0.0041512536600395
0.00415125023870204
0.00415124656003388
0.00415124407313367
0.00415124131230479
0.00415123947904587
0.00415123753838335
0.00415123614856064
0.0041512347193239
0.00415123362466401
0.00415123245954195
0.00415123159382067
0.00415123050504953
0.00415122991631028
0.00415122892601495
0.00415122915695598
0.00415122802617023
0.00415122562716594
0.00415122009070585
0.00415121412626553
0.00415120641224202
0.00415120018701307
0.00415119399539872
0.0041511904214192
0.00415118800730592
0.00415118837023889
0.00317473385981129
0.00272992650344758
0.00240276336359262
0.00218181044780251
0.00207121378334978
0.00206481240247218
0.00216256705032969
0.00234447232809638
0.00259259683475313
0.0028748906630605
0.00317069202643778
0.00345405390993836
0.00370839347195977
0.00391541413858585
0.00407271771038475
0.00418607565812605
0.00426420745348042
0.00431538455630971
0.00434699605444777
0.00436479884197158
0.00437329537956432
0.00437572206862711
0.00437442387665779
0.00437099083637794
0.00436649865305825
0.00436163071168355
0.00435680865289611
0.00435227198412644
0.00434814097588527
0.00434446188945885
0.00434123347142011
0.00433843088620416
0.00433601422204822
0.00433394112001599
0.00433216685174837
0.00433065178085451
0.00432935771077809
0.00432825349483609
0.00432730949335794
0.00432650311911588
0.00432581218227171
0.0043252210572931
0.00432471322711942
0.0043242781834901
0.00432390353516158
0.00432358216868333
0.00432330468273618
0.0043230663370226
0.00432285989715842
0.00432268230212452
0.00432252784609838
0.00432239461333815
0.00432227830884355
0.00432217761983982
0.00432208934395171
0.00432201256252355
0.00432194513268329
0.00432188629434991
0.00432183456084909
0.00432178942840506
0.00432174976156261
0.00432171548163927
0.00432168526529918
0.00432165946531195
0.00432163686544285
0.00432161797806383
0.00432160098881697
0.00432158705491892
0.00432157446732682
0.00432156429598406
0.00432155493948343
0.00432154747106704
0.00432154030272665
0.00432153488013274
0.00432152940716462
0.00432152555435047
0.00432152138741564
0.00432151855765862
0.00432151540675293
0.00432151329447096
0.0043215110565894
0.00432150942883372
0.00432150776038075
0.00432150647183349
0.00432150510537942
0.00432150409059369
0.0043215028225732
0.00432150213576152
0.00432150098622775
0.00432150116678109
0.0043214997391975
0.00432149711339885
0.00432149127908842
0.00432148527402023
0.00432147752871365
0.00432147157343526
0.00432146565547633
0.00432146256131972
0.004321460585908
0.00432146145129166
0.00317007528845972
0.00272401294680045
0.00240233095063278
0.00219526498989315
0.00210811281458985
0.00213327575513748
0.002267717621338
0.00248526223675161
0.00276360284995128
0.00306744804410702
0.0033762792518901
0.00366477776016082
0.003917827674793
0.00411977780285275
0.00427093768942931
0.00437833409351344
0.00445126804085226
0.0044981481599437
0.00452634025899181
0.0045414762147718
0.00454793048641389
0.00454880503823465
0.00454633777882407
0.00454202408894447
0.00453686997143208
0.00453150097529662
0.00452629802585225
0.00452146786285259
0.00451710846604085
0.0045132484038735
0.00450987470926783
0.00450695328266775
0.0045044381694329
0.0045022822254547
0.00450043755267457
0.00449886202524735
0.00449751567665236
0.00449636603532098
0.00449538234696439
0.00449454129982372
0.00449381989578527
0.00449320211795242
0.00449267079513264
0.00449221521359504
0.00449182243159538
0.00449148522315964
0.0044911937256754
0.00449094315499378
0.00449072588063556
0.00449053885578535
0.00449037602631355
0.0044902355164589
0.0044901127563186
0.00449000646220098
0.00448991321780737
0.0044898321252632
0.00448976089598788
0.00448969876246941
0.00448964413465626
0.00448959650443911
0.00448955463291416
0.00448951848387341
0.00448948657916274
0.00448945936172621
0.00448943546451197
0.00448941550647763
0.00448939747116953
0.00448938270903512
0.00448936929040479
0.00448935845585135
0.00448934843073685
0.00448934043943979
0.00448933271064809
0.00448932689276568
0.00448932095366026
0.00448931679554442
0.00448931224721695
0.004489309174531
0.0044893057187381
0.00448930340583908
0.00448930093942507
0.00448929913447086
0.00448929728156916
0.00448929584809022
0.00448929432364226
0.00448929319988374
0.00448929178634426
0.00448929103519658
0.00448928975161047
0.00448928990071302
0.00448928819599122
0.0044892853883608
0.00448927930279237
0.00448927331501935
0.0044892655773002
0.00448925992581913
0.00448925428696497
0.00448925166502114
0.00448925009604005
0.00448925142165037
0.00316509443998409
0.00271822464732736
0.00240349546345784
0.00221274318202868
0.00215224883605243
0.00221195963062446
0.00238468711664983
0.00263726903327497
0.00294337372786121
0.00326533495073261
0.00358366319753507
0.00387422105430288
0.00412368027249387
0.00431927766642939
0.00446369510713595
0.00456495064335424
0.00463274589006763
0.00467550711666428
0.00470050840969228
0.00471321539420113
0.00471785469987142
0.00471738312672526
0.00471392887962229
0.00470889217682506
0.004703211596909
0.00469745699269553
0.00469197153430575
0.00468693148710816
0.00468241498285106
0.00467843470750093
0.00467496774625879
0.00467197203465765
0.0046693967929939
0.00466719099783878
0.00466530441226408
0.00466369305489097
0.00466231576154742
0.00466113918806393
0.00466013186542632
0.00465927008813656
0.0046585303340943
0.00465789644267574
0.0046573507932262
0.00465688265453596
0.00465647868348274
0.00465613168430303
0.00465583144424332
0.00465557324419668
0.00465534913912849
0.00465515618079498
0.00465498802553326
0.00465484290166161
0.00465471600900463
0.00465460613995435
0.00465450969861482
0.00465442584266076
0.00465435216499248
0.00465428791533159
0.00465423142137652
0.00465418218987295
0.00465413889326905
0.00465410155583943
0.00465406855184155
0.00465404043248534
0.00465401568350802