/*--------------------------------*- C++ -*----------------------------------*\
| =========                 |                                                 |
| \\      /  F ield         | OpenFOAM: The Open Source CFD Toolbox           |
|  \\    /   O peration     | Version:  2.3.0                                 |
|   \\  /    A nd           | Web:      www.OpenFOAM.org                      |
|    \\/     M anipulation  |                                                 |
\*---------------------------------------------------------------------------*/
FoamFile
{
    version     2.0;
    format      ascii;
    class       volScalarField;
    location    "25000";
    object      nut;
}
// * * * * * * * * * * * * * * * * * * * * * * * * * * * * * * * * * * * * * //

dimensions      [0 2 -1 0 0 0 0];

internalField   nonuniform List<scalar> 
10000
(
0.000144636976469344
0.000138875978962246
0.000132447669476486
0.000125270467869503
0.000117905024330988
0.000110644336122972
0.000104044124374879
9.83534292861166e-05
9.39543338255736e-05
9.0940048284127e-05
8.94695015042067e-05
8.94237980775253e-05
9.07888920325543e-05
9.31995907740421e-05
9.59352918363216e-05
9.84945099449495e-05
0.000100681521742081
0.000102515940051462
0.000104022962077258
0.000105276425323
0.000106318476427337
0.000107203537309794
0.000107959142260329
0.000108617444629603
0.000109193080631058
0.000109703731235785
0.000110156697505361
0.000110561799031798
0.000110922978208066
0.000111246202214608
0.000111534146875232
0.000111790971477786
0.000112018940362146
0.00011222130788055
0.000112400158677381
0.000112558185386781
0.000112697287932618
0.000112819721660422
0.000112927147371917
0.000113021437235794
0.000113103980159395
0.00011317630823112
0.000113239535615702
0.000113294901112313
0.000113343266185614
0.000113385618276863
0.000113422602443135
0.000113454999354663
0.000113483282930126
0.000113508061772975
0.000113529678539935
0.000113548613686931
0.000113565114132982
0.000113579554873086
0.000113592120036124
0.000113603100400863
0.000113612642547778
0.000113620966617843
0.000113628193713171
0.000113634491585838
0.00011363996488335
0.000113644741349153
0.000113648900605468
0.000113652551319128
0.000113655748050725
0.000113658577663104
0.000113661051682738
0.000113663265821327
0.000113665210229852
0.000113666966246753
0.000113668500192277
0.000113669897797219
0.000113671114645655
0.000113672233562814
0.000113673205910899
0.000113674112751426
0.000113674888116245
0.000113675621870723
0.000113676242655511
0.000113676837262166
0.000113677339105774
0.000113677818746044
0.000113678225594414
0.000113678607508553
0.000113678936019618
0.000113679238352712
0.0001136794975948
0.000113679739830861
0.000113679941845367
0.000113680149805202
0.000113680385644056
0.000113680557017177
0.000113680533816524
0.000113680420470997
0.000113680121768173
0.000113679788299962
0.000113679327939112
0.000113678907349579
0.000113678437885324
0.000113678080979782
0.000144571978991465
0.000138731177076521
0.000132188959404037
0.000124899293865676
0.000117447924447508
0.000110133606405152
0.00010352592043631
9.78679807160788e-05
9.35483965958351e-05
9.06431430723042e-05
8.93077478252321e-05
8.93978928436556e-05
9.09020754655896e-05
9.34210203329099e-05
9.61957266626702e-05
9.87509282968047e-05
0.000100916539072189
0.000102732090666464
0.000104220549410603
0.000105460414840727
0.000106490196346764
0.000107366179609658
0.000108113413439949
0.000108765129710396
0.000109334467588227
0.000109839829004169
0.000110287650171349
0.000110688244904432
0.000111045061090645
0.000111364395492012
0.000111648635569594
0.00011190214901413
0.000112127023670494
0.000112326636859345
0.000112502958181049
0.000112658746603787
0.000112795822718255
0.00011291647332309
0.000113022302207355
0.000113115193099956
0.000113196493161383
0.000113267735460392
0.000113330003538606
0.000113384532251524
0.000113432160495559
0.000113473869825657
0.000113510289119794
0.000113542192717863
0.000113570043213029
0.000113594443283804
0.0001136157276016
0.000113634371560729
0.000113650616815202
0.000113664833761422
0.0001136772031459
0.000113688011641991
0.000113697404158972
0.000113705596888633
0.000113712709953501
0.000113718907837731
0.000113724294736733
0.000113728995535852
0.000113733089335402
0.000113736682844429
0.000113739830180636
0.000113742616405206
0.00011374505216649
0.000113747232257158
0.000113749146931485
0.000113750876276977
0.000113752386541389
0.000113753762492438
0.000113754960110484
0.000113756061448272
0.000113757018210788
0.000113757910920419
0.000113758673497335
0.000113759395515085
0.000113760005915869
0.00011376059079028
0.000113761084416753
0.000113761555990789
0.000113761956145318
0.000113762331297768
0.000113762654256241
0.000113762951119952
0.000113763205691766
0.000113763443789136
0.000113763641909185
0.000113763848204601
0.000113764083132778
0.000113764246922585
0.000113764213184442
0.000113764090316933
0.000113763783180179
0.000113763445327952
0.00011376298381728
0.000113762566402108
0.000113762103562724
0.000113761757577305
0.000144471767560421
0.000138438427577385
0.000131656520214826
0.000124135749057379
0.00011651284710501
0.000109099306400044
0.000102487504471793
9.69120454873977e-05
9.2763500657365e-05
9.00876355221382e-05
8.90208389611209e-05
8.93761361820566e-05
9.11388115771435e-05
9.38547862999576e-05
9.66939720964508e-05
9.92397328285361e-05
0.000101365192754872
0.00010314368950426
0.000104595923333917
0.000105808206354103
0.000106813281391096
0.000107670412216087
0.000108400450085861
0.000109038345220976
0.000109594638713318
0.000110088912919493
0.000110526082766371
0.000110917293722326
0.000111265116720357
0.000111576412995167
0.00011185305444035
0.00011209976806741
0.000112318322526567
0.000112512306180331
0.000112683477357708
0.000112834706661984
0.000112967666459261
0.000113084693974733
0.000113187284609866
0.000113277338027192
0.000113356120664675
0.0001134251637141
0.000113485490402857
0.000113538325997777
0.000113584464082771
0.000113624874061974
0.000113660151561346
0.000113691058785701
0.000113718034300581
0.000113741669929692
0.000113762282899482
0.000113780339691586
0.000113796069846144
0.000113809835878487
0.000113821810299931
0.000113832272813647
0.000113841363608224
0.000113849292096637
0.000113856175380798
0.000113862172250472
0.00011386738515757
0.000113871933968512
0.000113875896033107
0.000113879374779277
0.000113882422730315
0.000113885121960851
0.000113887480745944
0.000113889592919902
0.000113891447777534
0.000113893124015476
0.000113894586674777
0.000113895919768742
0.000113897078808411
0.000113898145574097
0.000113899071114801
0.000113899936149728
0.000113900673091034
0.000113901372288473
0.000113901961856394
0.000113902527916262
0.000113903005004704
0.000113903461001793
0.000113903847714566
0.000113904209813663
0.00011390452169038
0.000113904807975844
0.000113905053287763
0.000113905283386078
0.000113905473814937
0.000113905677084944
0.000113905909562068
0.000113906058528044
0.000113906003844582
0.000113905863066224
0.000113905539550983
0.000113905194095564
0.00011390473024979
0.000113904319751652
0.000113903869315291
0.000113903544518853
0.00014431483200141
0.000137998002987526
0.000130869585905882
0.000123027678701122
0.000115173405621672
0.000107642730314788
0.000101045213487247
9.56111653946648e-05
9.17164054821942e-05
8.93702866362265e-05
8.86681827525267e-05
8.93754059874998e-05
9.14619995103249e-05
9.44163016093663e-05
9.73191613983497e-05
9.98466453831433e-05
0.000101921323750297
0.000103650791146849
0.000105055989438567
0.000106230715247462
0.000107202531758746
0.00010803324586509
0.000108739512390487
0.00010935773505197
0.000109895753447564
0.000110374216250228
0.000110796429910419
0.000111174338996414
0.000111509578758629
0.000111809573070814
0.000112075637171091
0.000112312860234089
0.00011252265885262
0.000112708830765876
0.000112872894076962
0.000113017823984194
0.000113145118580142
0.0001132571552727
0.00011335529794078
0.000113441451092142
0.000113516780546061
0.000113582805197464
0.000113640471309086
0.000113690985729151
0.000113735082965469
0.000113773713181744
0.000113807427804368
0.000113836971425756
0.000113862749967695
0.000113885340332995
0.000113905035555385
0.000113922290349789
0.000113937316941167
0.000113950467793766
0.000113961903270321
0.000113971894371431
0.000113980573805563
0.000113988142649793
0.000113994712909593
0.000114000436463536
0.000114005412464305
0.000114009754749851
0.000114013537466652
0.000114016860362353
0.000114019772881174
0.000114022353912428
0.000114024607753861
0.000114026627929936
0.000114028401210237
0.000114030005591014
0.000114031403370822
0.000114032678722455
0.000114033785324505
0.000114034805744823
0.000114035688905073
0.000114036516951722
0.000114037219126192
0.000114037887987631
0.000114038449353419
0.00011403899050847
0.000114039445186463
0.000114039880594593
0.000114040249149562
0.000114040594060726
0.000114040891048036
0.000114041163425215
0.000114041396368067
0.000114041615979079
0.000114041796180811
0.000114041995815208
0.000114042223539316
0.00011404235262764
0.000114042270445845
0.00011404210734341
0.000114041763345504
0.000114041409674396
0.00011404094370715
0.00011404054367137
0.000114040109756933
0.000114039812831625
0.000144095963097017
0.000137405383647772
0.000129834866054356
0.000121602113078929
0.000113478291586268
0.000105832963634024
9.92823306246654e-05
9.40535223307139e-05
9.04902487858112e-05
8.85547922406803e-05
8.8285039637545e-05
8.93956679602241e-05
9.18342194057747e-05
9.50308557404204e-05
9.79782499494508e-05
0.000100476688786578
0.000102494633642684
0.000104167794357694
0.000105519846588864
0.000106650322384347
0.000107583177773749
0.000108381767977695
0.000109059357407263
0.000109653181439319
0.000110168800394865
0.000110627553364139
0.000111031369549703
0.000111392769601218
0.00011171258144149
0.000111998657068964
0.00011225182371491
0.000112477447781249
0.000112676626814687
0.000112853311184917
0.000113008790970641
0.000113146106193429
0.000113266581465878
0.000113372605729631
0.000113465406409318
0.000113546872029846
0.000113618060556734
0.000113680463457211
0.000113734942300814
0.000113782674715493
0.000113824328758871
0.000113860827725973
0.000113892672429124
0.000113920584497206
0.000113944931784121
0.000113966272657334
0.000113984871411649
0.000114001168640175
0.000114015355515832
0.000114027772847196
0.000114038565852915
0.000114047995706699
0.000114056185285059
0.000114063326518637
0.000114069524385841
0.000114074923351274
0.000114079617628662
0.000114083714790906
0.000114087284200601
0.000114090422131355
0.000114093173307241
0.000114095613919491
0.000114097742669124
0.000114099653786789
0.000114101329739076
0.000114102848983003
0.000114104169441791
0.000114105376632878
0.000114106420921395
0.000114107386891711
0.000114108219738323
0.000114109004437561
0.000114109665417927
0.000114110298903549
0.000114110826943141
0.000114111339165951
0.000114111767361586
0.000114112178886641
0.000114112526071961
0.000114112851162256
0.000114113130712941
0.000114113387113932
0.000114113605645949
0.000114113813248396
0.000114113981567783
0.00011411417737887
0.00011411439700052
0.000114114503088434
0.000114114390179646
0.000114114203661086
0.000114113838365494
0.000114113478034782
0.000114113011516083
0.000114112625372605
0.000114112211031275
0.000114111945701996
0.000143808684557934
0.000136651747161456
0.0001285537841948
0.000119878449554659
0.000111466633039401
0.000103725020464972
9.72663796396583e-05
9.23091714689071e-05
8.91485441038645e-05
8.76844549406321e-05
8.78882951902002e-05
8.94236619108068e-05
9.22145989760482e-05
9.56298710561045e-05
9.8593255971872e-05
0.000101051478243495
0.000103009029527931
0.000104621979147312
0.000105917884204306
0.000107000172533411
0.000107890587084678
0.000108653140271878
0.000109298611798303
0.000109864501373788
0.000110354634195596
0.000110790663590628
0.000111173461692622
0.000111515876170743
0.000111818112091671
0.000112088284456159
0.000112326835452116
0.000112539298586875
0.000112726507230493
0.000112892490453316
0.000113038337554436
0.000113167103504042
0.000113279951306553
0.000113379247722928
0.000113466087312127
0.000113542319793909
0.000113608894698453
0.000113667260629757
0.000113718191916069
0.000113762826654829
0.00011380176312182
0.000113835890864622
0.000113865656771622
0.00011389175489995
0.000113914511986127
0.000113934464916743
0.000113951846450618
0.000113967081216117
0.000113980336881881
0.000113991941426922
0.000114002022846712
0.000114010831743917
0.000114018479362355
0.000114025148136832
0.000114030934421242
0.000114035975164072
0.000114040358175948
0.000114044184934312
0.000114047518586747
0.00011405045240654
0.000114053024907831
0.000114055310382406
0.000114057300526157
0.000114059091307394
0.000114060659267191
0.000114062084594993
0.000114063319396433
0.000114064451634999
0.000114065427088675
0.00011406633342595
0.000114067110726425
0.000114067848061898
0.000114068463686451
0.00011406905868483
0.000114069550146031
0.000114070030997028
0.000114070430136167
0.00011407081580457
0.000114071139666449
0.000114071443443106
0.000114071704051673
0.000114071943346229
0.000114072146298143
0.000114072341073945
0.000114072496570117
0.000114072688544524
0.000114072895894172
0.000114072977695761
0.000114072833611199
0.000114072625134243
0.00011407224027647
0.000114071876352092
0.000114071411851374
0.000114071042745309
0.000114070650171423
0.000114070417806355
0.000143443172252367
0.000135725136581642
0.00012702457016328
0.000117871411167855
0.000109170850597092
0.000101365328367165
9.5054744749938e-05
9.04368061785241e-05
8.77408017790646e-05
8.67886137854753e-05
8.74830884592706e-05
8.9440454127828e-05
9.25635610288287e-05
9.61546554743217e-05
9.91038561916716e-05
0.000101511279417798
0.000103405782020719
0.000104956574874812
0.000106195187603056
0.000107227300099906
0.000108073424515324
0.000108797532521726
0.000109408697575243
0.000109944247600003
0.000110406783715306
0.00011081796668997
0.000111177924851884
0.000111499613865913
0.00011178279960211
0.000112035705483341
0.000112258492536854
0.000112456754314015
0.000112631116995694
0.000112785615667123
0.000112921169200832
0.000113040799078721
0.000113145522222813
0.00011323765141526
0.00011331815572129
0.000113388825361968
0.000113450504384862
0.000113504585198691
0.000113551755425203
0.000113593105175459
0.000113629162255312
0.000113660777092137
0.000113688341470812
0.000113712518467129
0.000113733592332321
0.000113752076456243
0.00011376817054756
0.000113782282101384
0.00011379455380279
0.000113805300143164
0.00011381463053945
0.000113822784699916
0.000113829860903155
0.000113836032130841
0.000113841384880213
0.000113846048769897
0.000113850103982263
0.000113853646366543
0.000113856731597618
0.000113859450620147
0.00011386183445653
0.000113863956467918
0.00011386580016003
0.000113867464248457
0.000113868917903148
0.000113870244341106
0.000113871388639918
0.000113872442177785
0.000113873345073305
0.000113874189024684
0.000113874907776995
0.000113875595669317
0.000113876163624351
0.000113876718604852
0.000113877171731698
0.000113877620067238
0.000113877988773963
0.000113878347682274
0.00011387864725031
0.000113878929125834
0.000113879170078154
0.0001138793918813
0.000113879578720082
0.000113879760418599
0.000113879902662813
0.000113880090861901
0.000113880281828157
0.000113880339269425
0.00011388016555775
0.000113879938257266
0.000113879537226774
0.000113879173590648
0.000113878714197095
0.000113878364847769
0.000113877995537583
0.000113877795868741
0.000142987668036475
0.000134612339878709
0.000125244775314602
0.000115594111641854
0.000106620573665475
9.87968714159562e-05
9.2699706533781e-05
8.84877452873633e-05
8.63063490575334e-05
8.5886910077433e-05
8.70683301010277e-05
8.94268661214801e-05
9.28469927513099e-05
9.65581856270989e-05
9.94671408575046e-05
0.000101814601685598
0.000103643829581216
0.00010513147023526
0.000106312594842485
0.00010729373260005
0.000108094787210384
0.000108779146009986
0.000109354781603341
0.000109858526167117
0.000110292184084787
0.000110677188003479
0.000111013192132338
0.00011131308237401
0.000111576344985404
0.00011181118051653
0.000112017559547798
0.000112201042365117
0.00011236209850416
0.000112504705348341
0.000112629639403133
0.000112739846723524
0.000112836213755588
0.000112920972493807
0.000112994975205167
0.000113059935813267
0.00011311659760826
0.000113166286552339
0.000113209605899624
0.000113247591667417
0.000113280702226526
0.000113309745253195
0.000113335057686824
0.000113357269549273
0.000113376622395119
0.000113393605096715
0.000113408383704
0.000113421348134053
0.000113432615312595
0.000113442486124039
0.000113451050586395
0.000113458537626362
0.000113465031592824
0.000113470696391043
0.000113475607772587
0.000113479888430113
0.00011348360993167
0.000113486863201563
0.000113489695331087
0.000113492195774937
0.000113494386996411
0.000113496342475382
0.000113498036518185
0.000113499571599035
0.000113500908221455
0.000113502133912004
0.000113503185719083
0.00011350415928511
0.000113504988140885
0.000113505768915742
0.000113506427892418
0.000113507065822109
0.000113507585241623
0.000113508099935011
0.000113508514115205
0.000113508929822046
0.00011350926763638
0.000113509599729063
0.000113509874763923
0.000113510134847652
0.000113510355995888
0.000113510560496911
0.000113510731122718
0.000113510899936038
0.000113511028839076
0.00011351121332654
0.000113511384256259
0.000113511418203975
0.000113511217756192
0.000113510975676253
0.000113510562768509
0.000113510203526512
0.000113509752463593
0.000113509425045403
0.000113509079919145
0.000113508911613752
0.000142429187350106
0.000133300140824071
0.000123212914342638
0.000113060272110219
0.000103845376373736
9.60620025029313e-05
9.02505007703478e-05
8.65069055405232e-05
8.48756615634235e-05
8.49914237098184e-05
8.66395017901783e-05
8.93656014575287e-05
9.30373315190856e-05
9.68045702389496e-05
9.9655405749576e-05
0.000101935477170701
0.000103697374389347
0.000105121241869553
0.00010624508010214
0.000107175100755176
0.000107930956646201
0.000108575020943398
0.000109114607501896
0.000109585811553688
0.000109989973351136
0.000110348120223091
0.000110659646471443
0.000110937229359281
0.000111180202570923
0.00011139663796892
0.000111586387851626
0.000111754902935759
0.000111902536777581
0.000112033157080224
0.000112147421400887
0.000112248166802369
0.000112336163223187
0.000112413541120646
0.000112481044667237
0.000112540299109575
0.000112591952449133
0.000112637257223266
0.000112676735660637
0.0001127113659262
0.000112741539099788
0.000112768018153541
0.000112791086406401
0.000112811340005271
0.000112828978383735
0.000112844465787765
0.000112857934650291
0.000112869757516603
0.000112880025296982
0.000112889025629368
0.000112896828718884
0.000112903653207859
0.00011290956885321
0.000112914731105325
0.000112919204406954
0.00011292310506773
0.000112926495295405
0.0001129294619556
0.000112932042588411
0.000112934326104424
0.000112936325544725
0.000112938115563972
0.000112939660444369
0.000112941067409359
0.000112942287137448
0.000112943412674555
0.000112944372256509
0.000112945266518177
0.000112946021600824
0.000112946739939514
0.000112947339292159
0.000112947927940266
0.000112948399066567
0.000112948874169535
0.000112949249651656
0.000112949633396899
0.000112949940552053
0.000112950246404658
0.000112950497195732
0.000112950736102344
0.000112950937694474
0.000112951125503197
0.000112951280103252
0.000112951436550295
0.000112951552239224
0.000112951733027028
0.00011295188099154
0.000112951892999781
0.000112951669522038
0.000112951417037568
0.000112950996898986
0.000112950645960348
0.000112950206305607
0.000112949902386013
0.000112949581896555
0.00011294944295824
0.000141753921985769
0.000131776217176161
0.000120929529149322
0.000110285688644141
0.000100876468294843
9.32035888403583e-05
8.77534963818927e-05
8.45324827699608e-05
8.34709224675616e-05
8.41081119083555e-05
8.61901257982678e-05
8.92417367456807e-05
9.31130702733245e-05
9.68674432994233e-05
9.96533992335958e-05
0.000101860028317377
0.000103552589417618
0.00010491217304248
0.000105979051936034
0.00010685816139992
0.000107569080756747
0.000108172823426021
0.000108676351045511
0.000109114839078086
0.000109489408324786
0.000109820547684615
0.000110107551126377
0.00011036278080934
0.000110585512024822
0.000110783605476898
0.000110956848406848
0.00011111052234562
0.000111244895248994
0.000111363685070702
0.000111467448705676
0.000111558889162448
0.000111638671644314
0.000111708810340508
0.00011176994946796
0.000111823617476732
0.000111870372744712
0.000111911390465192
0.000111947115702987
0.000111978467125905
0.000112005771370992
0.000112029746231614
0.000112050623264218
0.000112068965013607
0.00011208492987337
0.000112098958147531
0.000112111149135964
0.00011212185878336
0.000112131152085823
0.000112139304218607
0.00011214636543677
0.000112152544942254
0.00011215789745477
0.000112162570780784
0.000112166617765274
0.000112170148975758
0.000112173216713395
0.000112175904787842
0.000112178240319812
0.000112180312710213
0.000112182124873468
0.000112183753676518
0.000112185152708233
0.000112186434927238
0.000112187540120905
0.000112188567977177
0.000112189437326784
0.000112190254431688
0.000112190937327519
0.000112191595141082
0.000112192136061473
0.00011219267701365
0.000112193100909857
0.000112193537845357
0.000112193875502624
0.000112194228533419
0.000112194505770534
0.000112194786419756
0.000112195013621109
0.000112195232322694
0.00011219541486697
0.000112195586898681
0.00011219572583542
0.000112195870676095
0.000112195973400966
0.000112196150431132
0.000112196273381829
0.000112196265461345
0.000112196023050803
0.000112195764481671
0.000112195341702008
0.000112195002534056
0.000112194577032377
0.000112194297586646
0.000112194001786576
0.000112193889870393
0.000140947574321146
0.000130029873288788
0.000118397956168897
0.000107289162266834
9.77475972359856e-05
9.02650314819295e-05
8.5251383985799e-05
8.25953512595932e-05
8.21066366167796e-05
8.32380846372142e-05
8.57126504680098e-05
8.90426088650256e-05
9.3057830370126e-05
9.67461335178858e-05
9.94557721796441e-05
0.000101583271191306
0.000103204522599285
0.000104499352206457
0.000105509632537629
0.000106338238047618
0.00010700473638207
0.000107568499667485
0.000108036339048094
0.00010844236817373
0.000108787659188461
0.000109092061527696
0.000109354880750909
0.000109588082928613
0.000109790950192515
0.000109971069304252
0.000110128199036668
0.000110267406876789
0.000110388896544716
0.000110496206943013
0.000110589808046776
0.000110672251427347
0.0001107441072998
0.000110807264205121
0.000110862273896992
0.000110910563605532
0.000110952607782735
0.000110989502899734
0.000111021621074529
0.000111049821514459
0.000111074369783011
0.000111095939152771
0.000111114711793016
0.000111131217687416
0.000111145575718185
0.000111158203442616
0.000111169167944577
0.000111178809655281
0.000111187168140546
0.000111194507106728
0.000111200857046043
0.000111206418705998
0.00011121123161792
0.000111215436782592
0.000111219075462643
0.000111222253109759
0.000111225011830382
0.000111227433364238
0.000111229533759173
0.000111231403870084
0.00011123303600787
0.000111234510152621
0.000111235768787813
0.000111236931441849
0.000111237926165657
0.000111238860183862
0.0001112396426005
0.000111240385756365
0.000111240999061667
0.000111241599084128
0.000111242083571124
0.000111242579029437
0.000111242957393465
0.000111243358066483
0.000111243659264872
0.000111243983195262
0.000111244231656607
0.000111244488420808
0.000111244692967419
0.00011124489264231
0.000111245056851606
0.00011124521419005
0.000111245337972702
0.000111245472092124
0.000111245562210707
0.000111245735309834
0.000111245832164332
0.000111245806576933
0.000111245549406844
0.000111245288771496
0.000111244867630065
0.000111244543129846
0.000111244134092522
0.000111243879550658
0.000111243608165023
0.000111243520780475
0.000139995708524315
0.00012805266296172
0.000115624906236898
0.00010409315769962
9.44952722343766e-05
8.72894775881076e-05
8.2781948901981e-05
8.07186883194488e-05
8.07905204261742e-05
8.23787976255283e-05
8.51990398563166e-05
8.87575584919717e-05
9.28595139010353e-05
9.64425965700244e-05
9.9063328723179e-05
0.000101106462085719
0.000102654570827305
0.000103884253916567
0.000104838336905216
0.000105616997004897
0.000106239781625311
0.000106764191408371
0.000107197010862442
0.000107571179355039
0.00010788783240841
0.000108166102470692
0.000108405379810415
0.000108617173182744
0.000108800813230012
0.000108963566061236
0.000109105185197863
0.000109230491670122
0.00010933963919012
0.000109435967503625
0.000109519869843293
0.000109593735491989
0.00010965804782994
0.000109714564850678
0.000109763752797978
0.000109806936284835
0.000109844511530082
0.000109877496903821
0.000109906196059714
0.00010993141004587
0.000109953347113618
0.000109972637490726
0.000109989416753864
0.000110004183868527
0.000110017020113393
0.000110028321790455
0.000110038125078176
0.000110046756120818
0.000110054229901386
0.000110060799719058
0.00011006647681066
0.000110071454468486
0.000110075757191794
0.000110079519948546
0.00011008277272438
0.000110085616406078
0.000110088082882464
0.000110090252709787
0.000110092130467491
0.000110093809275619
0.000110095270604923
0.000110096598258
0.000110097723496853
0.00011009877303209
0.000110099662606018
0.000110100507583974
0.00011010120731446
0.00011010188045273
0.00011010242750562
0.000110102973022206
0.000110103403678004
0.00011010385623989
0.000110104191241715
0.000110104557856014
0.000110104824335446
0.000110105120991344
0.000110105342124082
0.000110105576474955
0.000110105759507999
0.00011010594143556
0.000110106088176633
0.000110106231981917
0.000110106341237321
0.000110106465569948
0.000110106543529681
0.00011010671237268
0.000110106783001442
0.000110106742142634
0.000110106474217803
0.000110106215124722
0.000110105799409122
0.00011010549189061
0.000110105101132896
0.000110104871477007
0.000110104623932805
0.000110104558610622
0.000138884128009455
0.00012583891424102
0.000112620880017285
0.000100724094465728
9.11583724898187e-05
8.43184978361423e-05
8.03768578027292e-05
7.89180503112236e-05
7.95246270954222e-05
8.15251235698555e-05
8.46411907318877e-05
8.83777105095243e-05
9.25096729268652e-05
9.59599358721445e-05
9.84808199240652e-05
0.000100435134286861
0.000101908557861041
0.000103072859150185
0.000103971235188231
0.00010470065859959
0.000105280607602934
0.000105766524912223
0.000106165235757859
0.000106508415818446
0.000106797330880053
0.000107050336858865
0.000107266951634792
0.000107458180993486
0.000107623427586669
0.000107769603221422
0.000107896469302646
0.000108008578271013
0.000108106042818732
0.000108191991037724
0.000108266747051039
0.000108332532331422
0.000108389750480359
0.000108440027628412
0.000108483751095495
0.000108522143824962
0.00010855552953729
0.00010858485055712
0.000108610346831925
0.000108632763395654
0.000108652255284651
0.000108669411647636
0.000108684324667526
0.00010869746403426
0.000108708875747578
0.000108718936372651
0.000108727652934776
0.000108735338427402
0.000108741984530764
0.000108747835061577
0.000108752882910123
0.000108757314727023
0.00010876114053589
0.000108764489850316
0.000108767381989523
0.00010876991367026
0.000108772106854606
0.000108774041563599
0.000108775710888484
0.000108777210731864
0.000108778511808429
0.0001087797021603
0.000108780702082999
0.000108781645723778
0.000108782436362115
0.000108783197705292
0.000108783819666906
0.000108784427150884
0.000108784911836211
0.000108785406429605
0.000108785786318469
0.000108786198778446
0.000108786492955269
0.000108786827837891
0.000108787061646857
0.000108787332915356
0.0001087875284115
0.00010878774185616
0.000108787904692009
0.000108788070154894
0.000108788200437984
0.000108788331844833
0.000108788427330293
0.000108788542768564
0.000108788609126473
0.0001087887732155
0.000108788818334882
0.000108788764659007
0.000108788489663331
0.00010878823526272
0.000108787828187081
0.000108787539407106
0.000108787168238941
0.000108786963091761
0.000108786738563835
0.000108786692947013
0.000137599251617994
0.000123386160954196
0.000109400417303367
9.72122739918316e-05
8.77772371800446e-05
8.13905122550498e-05
7.80607771447268e-05
7.72019350971733e-05
7.83065791603314e-05
8.06702644578037e-05
8.40312486703605e-05
8.78958475470901e-05
9.20030464037493e-05
9.5302927202383e-05
9.77156607482186e-05
9.95777090407755e-05
0.000100975324308524
0.000102074247823136
0.000102917553665268
0.000103598616260308
0.0001041367745891
0.000104585265934146
0.000104950983405505
0.000105264269006
0.00010552655192403
0.000105755366561954
0.000105950378636074
0.000106122057951519
0.000106269889283837
0.000106400407187325
0.000106513386896826
0.000106613098563221
0.000106699619249446
0.000106775859085081
0.000106842079036981
0.000106900331493068
0.000106950946641845
0.000106995420219061
0.000107034066975927
0.000107068010886349
0.000107097508969262
0.000107123430537157
0.000107145956837771
0.000107165779556535
0.000107183004873791
0.000107198183075094
0.00010721136649761
0.000107222997300076
0.000107233088919477
0.000107241999567443
0.000107249709290817
0.000107256518850635
0.000107262398330079
0.000107267582744857
0.000107272047952998
0.000107275974494195
0.000107279358881505
0.000107282325506047
0.000107284883909764
0.00010728712684795
0.000107289066956579
0.000107290784072232
0.000107292260186219
0.000107293594153697
0.000107294746351522
0.000107295809152636
0.000107296692524236
0.000107297537897538
0.000107298236398214
0.000107298919846406
0.000107299469390304
0.00010730001579419
0.000107300442369433
0.000107300889735675
0.000107301222251623
0.000107301597460072
0.000107301853615067
0.000107302159096705
0.000107302362520241
0.000107302610252656
0.000107302781985679
0.000107302975991544
0.000107303120082083
0.000107303270307499
0.00010730338526361
0.000107303505322994
0.000107303587919211
0.000107303695263387
0.000107303750688265
0.000107303909398395
0.000107303930383181
0.000107303866355193
0.000107303587556261
0.000107303340552801
0.000107302944713247