/*--------------------------------*- C++ -*----------------------------------*\
| =========                 |                                                 |
| \\      /  F ield         | OpenFOAM: The Open Source CFD Toolbox           |
|  \\    /   O peration     | Version:  2.3.0                                 |
|   \\  /    A nd           | Web:      www.OpenFOAM.org                      |
|    \\/     M anipulation  |                                                 |
\*---------------------------------------------------------------------------*/
FoamFile
{
    version     2.0;
    format      ascii;
    class       volScalarField;
    location    "25000";
    object      omega;
}
// * * * * * * * * * * * * * * * * * * * * * * * * * * * * * * * * * * * * * //

dimensions      [0 0 -1 0 0 0 0];

internalField   nonuniform List<scalar> 
10000
(
22.1466689172947
19.9914038211244
18.4144045604849
17.2675127238621
16.4895950178564
16.0168785218273
15.8326821321011
15.9194565556598
16.2748848630237
16.8819397391229
17.704753050719
18.6806673302139
19.7082954632937
20.6930294844214
21.5976369252302
22.3833511850485
23.0268842345136
23.5137072923278
23.8618617540728
24.0899961651916
24.2265711904823
24.2927508274962
24.3104691616944
24.2942280447564
24.2573690980495
24.2079448517824
24.1530015205778
24.0963267890465
24.0411719766291
23.9889386667972
23.940841782231
23.8971077968828
23.8579683450965
23.8231543703973
23.7924854212155
23.7655404546808
23.7420104138783
23.7214756702488
23.7036253787861
23.6880978708444
23.6746278652807
23.6629232537415
23.6527753509029
23.643955059498
23.6363061032162
23.6296513908319
23.6238775704074
23.6188480880975
23.6144820457285
23.6106749875892
23.6073697218826
23.6044848920913
23.6019805317959
23.5997938806203
23.5978960055484
23.5962388124105
23.5948001873782
23.5935444801114
23.5924538917231
23.591501972608
23.5906737076118
23.5899498200037
23.5893190393033
23.5887652106985
23.5882811369668
23.587854004231
23.5874824621388
23.5871511633141
23.5868625362127
23.5866033702335
23.5863795299965
23.5861764171783
23.5860016468594
23.5858412844466
23.5857037301565
23.5855755703275
23.5854679527752
23.5853655861268
23.58528084795
23.5851988153999
23.5851314249974
23.5850662108822
23.5850123311617
23.5849611319976
23.584917831065
23.5848776056027
23.5848433628585
23.584810995705
23.5847842945963
23.5847571500623
23.5847253859577
23.5847011607094
23.5846994894568
23.5846997789486
23.584718192266
23.5847324804589
23.5847627666314
23.5847855768867
23.5848210358983
23.5848454483227
22.1474373400241
20.0044332534684
18.4415980238819
17.3124669998877
16.5554506396195
16.1089350540974
15.9567014697221
16.0834675534356
16.485657501185
17.1450034805708
18.0190477736692
19.0396920980793
20.0955477460887
21.091803870023
21.9995801514862
22.7819709114227
23.417856419557
23.8934684389057
24.2303030826945
24.4473063220364
24.5742616661977
24.6319440634647
24.6426840596093
24.6205071535666
24.5788486919899
24.5253884502636
24.4671805975048
24.4077590340034
24.3503638957731
24.2962338433225
24.2465715820863
24.2015016041878
24.1612458838897
24.1254719282333
24.0939920130198
24.0663453823395
24.0422173378203
24.0211629743957
24.0028669145728
23.9869510170519
23.9731462499371
23.9611495187731
23.9507489886291
23.9417080561517
23.9338678499985
23.9270460597214
23.9211271598467
23.9159709500759
23.9114947092829
23.9075914297409
23.9042024409733
23.9012445521782
23.8986765621521
23.8964344556801
23.8944882565492
23.8927890249645
23.8913136909367
23.8900261144864
23.8889076887807
23.8879316380799
23.8870822375936
23.8863400396371
23.8856932169266
23.8851254329536
23.8846290640069
23.8841912170405
23.8838103084862
23.8834708390439
23.8831749533361
23.882909434202
23.8826799929367
23.8824720044937
23.8822929044758
23.8821287610213
23.881987825072
23.8818566745756
23.8817464341355
23.8816417486408
23.8815549441585
23.8814711058672
23.8814020456499
23.8813354271827
23.8812802182467
23.8812279452286
23.8811835968098
23.8811425224107
23.8811074753115
23.8810743936074
23.8810470886198
23.8810191366627
23.8809862470365
23.8809620664578
23.8809611230659
23.880962292732
23.8809819922752
23.8809974561617
23.8810290598414
23.8810529240542
23.8810893101705
23.8811140148413
22.1591035811851
20.0364208398945
18.5027673650995
17.4102414097284
16.6968056010656
16.3044002313075
16.2188318936777
16.4279808355315
16.9267938770635
17.6921164635516
18.6693810909429
19.7777477570995
20.8881920265871
21.9048985659253
22.8174067693192
23.5912350798067
24.2105925800249
24.6635814781265
24.9778786079824
25.1730455023322
25.2811773304796
25.3223355583749
25.3195151854316
25.2858470678762
25.2349033913606
25.1736573771478
25.1091579831093
25.0444553249241
24.982757928336
24.9249927617313
24.8723340054655
24.8247106684463
24.7823237071225
24.7447189473359
24.7116935939523
24.6827107202036
24.6574444030944
24.6354012562001
24.6162571819087
24.5996024100849
24.5851608868388
24.5726083512346
24.5617272190924
24.5522663212187
24.5440621642652
24.5369222015267
24.5307271227231
24.5253294526266
24.5206433734089
24.5165566846959
24.5130082487429
24.5099110530758
24.5072218795257
24.5048740151127
24.5028357835399
24.5010563701021
24.4995111228097
24.4981627596306
24.4969913042641
24.4959692129718
24.4950795253834
24.4943023632396
24.493624937378
24.4930304582815
24.4925105991997
24.492052223566
24.4916534197143
24.4912982297056
24.4909884648945
24.4907106951657
24.4904705459393
24.490253116679
24.4900657375494
24.4898942366524
24.4897468328779
24.4896098390027
24.4894945981263
24.489385353639
24.4892946199293
24.4892072115604
24.4891349846225
24.4890655866943
24.4890078537965
24.4889534579819
24.4889071117823
24.4888643658494
24.4888277788406
24.4887932892377
24.4887648265325
24.4887352315371
24.4887001959241
24.488676155028
24.4886768687324
24.4886798216225
24.4887022627102
24.488720050329
24.4887544519454
24.4887803644245
24.4888187539255
24.488844009572
22.17639823447
20.0849729909356
18.5944785129156
17.5555922941817
16.9060389703993
16.592548372282
16.6049748625391
16.9337819545984
17.5719146663795
18.4858087264216
19.6041652314974
20.8269121158548
22.0048052970903
23.0418976320505
23.9570438090229
24.7160829020103
25.3107728831469
25.7327020900776
26.0165114988268
26.1827914703556
26.2660706891825
26.2856462674973
26.265108272975
26.2165343136262
26.1535419275662
26.0822518746246
26.0096372481954
25.9381572521086
25.8709419988294
25.8085350384934
25.7520530058898
25.7011835089998
25.6560889908652
25.6161647500868
25.5811823929631
25.550510713012
25.5238060874566
25.500515087
25.4803007921863
25.4627141877676
25.4474694911656
25.4342160816055
25.4227287886983
25.4127381722979
25.4040748909789
25.396533429933
25.3899898365652
25.3842873089675
25.3793363355476
25.3750179685406
25.371268193914
25.3679949471468
25.3651527116491
25.3626711457538
25.3605166441834
25.3586358308567
25.3570022339293
25.355576971919
25.3543384837155
25.353258123145
25.3523174779209
25.3514960276066
25.3507798702651
25.3501515170818
25.3496018957157
25.3491174336744
25.3486959645388
25.3483207430766
25.347993387131
25.3476999731468
25.3474462604778
25.347216750429
25.3470188835866
25.346837937886
25.3466823444662
25.3465378256442
25.3464162738315
25.3463011405814
25.3462054519801
25.3461134208609
25.3460372030008
25.3459642079957
25.3459032869822
25.345846145797
25.3457972666977
25.3457523620388
25.3457138185999
25.3456774993529
25.3456475655133
25.3456157049421
25.3455780030208
25.3455543392001
25.3455575701754
25.3455630392058
25.3455893871858
25.3456103125202
25.3456486164856
25.3456771967429
25.3457183310193
25.3457442262321
22.2002397403673
20.151413109019
18.7179900624183
17.7490863274485
17.1833111975529
16.9731980883573
17.1147386138587
17.5992187021737
18.4151605870189
19.5120605806741
20.7967792193398
22.1459993506153
23.3909848268704
24.4405668415524
25.3529467744748
26.089749221595
26.6522015288222
27.0367294916788
27.2846235752541
27.4177042746344
27.4725874076763
27.4678142675599
27.42733227491
27.36212946403
27.2857178267335
27.2033257202234
27.1217581695023
27.0428518573457
26.9696036290192
26.9021517960905
26.8415235210952
26.7871510753868
26.7391401575205
26.696727029411
26.6596474445081
26.6271708107693
26.5989300895119
26.574308681603
26.5529537024592
26.5343748562776
26.5182749188827
26.5042754827479
26.4921428930858
26.4815883231035
26.4724361871545
26.4644670790848
26.4575522528803
26.4515248128113
26.4462915422605
26.4417260982411
26.4377616664846
26.4343005514365
26.4312950551339
26.428670735357
26.4263921623245
26.4244030308665
26.4226751087095
26.4211676525006
26.4198575629262
26.4187148789397
26.4177197589631
26.4168508837491
26.4160932958597
26.4154285925827
26.4148470977014
26.4143345912165
26.4138888637717
26.4134920518313
26.4131458573771
26.4128355382922
26.4125673100604
26.4123247276758
26.4121156388889
26.4119244413654
26.4117600979313
26.4116073820752
26.4114791151134
26.4113575535253
26.4112565954453
26.4111595110889
26.4110790455521
26.4110021267997
26.4109377983338
26.4108776648695
26.4108260681728
26.4107788093248
26.4107381662735
26.4106998311939
26.4106683260622
26.410633761244
26.410593392597
26.4105704393171
26.4105769708302
26.4105855340614
26.4106167008407
26.4106412982957
26.4106842825395
26.4107158458017
26.410760167225
26.4107866757844
22.2322912098747
20.2379933943884
18.8759485518054
17.9934237695159
17.5320038055354
17.450975882719
17.7538361633327
18.4296552088046
19.4577782056973
20.76366383127
22.2274283336305
23.7016503366655
25.0016986061153
26.0503235450888
26.9521015045359
27.6585511538432
28.1820844220541
28.5246103220235
28.7332628586189
28.8309564329027
28.8558797595939
28.8257632766218
28.7646413848594
28.6824033549423
28.5923098598247
28.4986998279556
28.4081292812654
28.3218173121442
28.2425821979821
28.1701616946284
28.1054684253178
28.0476834341415
27.9968422015345
27.9520254436818
27.9129261551908
27.8787172107278
27.8490048834278
27.8231116056718
27.8006672305096
27.7811417823652
27.7642263065883
27.7495157130096
27.7367680781427
27.725675860677
27.7160577071288
27.7076806875895
27.7004117864816
27.6940741969034
27.6885715011547
27.6837700068313
27.6796005819689
27.6759598363714
27.6727983221712
27.6700374052638
27.6676401843066
27.665547337802
27.6637291450531
27.6621429179657
27.6607642524821
27.659561785698
27.6585144318744
27.6575999943777
27.6568026515056
27.6561029305228
27.655490804818
27.6549512107656
27.6544821910583
27.6540644718684
27.6537001829713
27.6533734351822
27.6530912702648
27.6528359721897
27.6526161127403
27.6524149103079
27.6522421918488
27.6520814368894
27.6519467765778
27.6518189010217
27.651712926628
27.6516108753314
27.6515263583481
27.6514455966471
27.6513779911223
27.6513149312763
27.6512607072901
27.6512111453769
27.6511684735279
27.6511281376209
27.6510951282286
27.6510575909961
27.6510150517902
27.6509931599495
27.6510036606673
27.651015734504
27.6510523790636
27.6510809300598
27.651129070122
27.6511636778926
27.6512113682321
27.6512383860468
22.2742232584185
20.3474471188075
19.0718432304726
18.2928975701721
17.9580176335598
18.0340353369046
18.5320862805188
19.4343169828133
20.7040703503967
22.235590047868
23.8788318878626
25.4647258570253
26.7990832005935
27.8307487084791
28.7125909399883
29.3806278534203
29.8596779070762
30.1571132433389
30.3248683214109
30.3865779223583
30.3814418900264
30.3262676099263
30.2449184058824
30.1461800885624
30.042938460508
29.9386654123848
29.8396053806449
29.7463837348703
29.6616076703444
29.5846337463436
29.5162434010953
29.4553809843953
29.40200376844
29.3550475517105
29.3141592811472
29.2784229803638
29.2474174207495
29.2204095517725
29.1970123920018
29.1766601580885
29.159033127398
29.1437022243642
29.1304184067943
29.1188572269718
29.1088327384137
29.1000996866319
29.0925218400038
29.0859132757545
29.0801752798083
29.0751673033513
29.0708186942255
29.0670206366202
29.063722607712
29.0608419367254
29.0583407944507
29.0561569358725
29.0542595879367
29.0526041517985
29.0511652846669
29.0499102226737
29.048816938393
29.0478623268104
29.0470299993264
29.0462992870192
29.0456601495636
29.0450964882132
29.0446069589757
29.0441706045019
29.0437903847453
29.0434489208289
29.0431544871115
29.0428877878357
29.0426584569502
29.0424482439311
29.0422681981745
29.0421001494254
29.041959939225
29.0418263249125
29.0417159977365
29.041609427385
29.0415213813828
29.04143714183
29.0413666416429
29.0413009381132
29.0412443777408
29.0411927323024
29.0411482626544
29.0411060766199
29.0410717567283
29.0410311089722
29.0409872084105
29.0409667750484
29.0409817960937
29.0409976420971
29.0410401945765
29.0410727609634
29.0411262751679
29.041163784052
29.041214811693
29.0412421706981
22.3279290047027
20.4829763545608
19.309929538274
18.6532331428248
18.469430568712
18.7332834082342
19.4620695542846
20.6242857210528
22.1588667328014
23.9224962414514
25.7341300233944
27.4087790224585
28.7513172656178
29.7506101291581
30.6022737239858
31.2244180229293
31.6546511854601
31.9052247840449
32.0317256902631
32.0580151928246
32.0237536111417
31.944686335765
31.8442754269233
31.730201045458
31.6148751061027
31.5009349180175
31.3942683656158
31.2949410801381
31.2053283777175
31.12443304467
31.052896239865
30.989445998839
30.9339582119324
30.8852384385741
30.8428873756624
30.8059106266784
30.7738606653761
30.7459563101288
30.7217955215193
30.7007818671999
30.6825867580206
30.6667607206197
30.6530494233927
30.641113953185
30.6307654320788
30.6217479464765
30.6139234709594
30.6070980959649
30.6011719971749
30.5959985009438
30.5915064578403
30.5875820676208
30.5841745846068
30.5811975825455
30.5786129889823
30.576355813457
30.5743947900979
30.5726834993986
30.5711961147569
30.5698985193187
30.5687681308134
30.5677809155327
30.5669203058142
30.5661643057493
30.5655032609708
30.5649198349364
30.5644137216505
30.5639619936889
30.5635689045393
30.563215211445
30.5629108633414
30.5626346747881
30.5623977135045
30.5621799481693
30.5619940564106
30.5618198207864
30.5616752405598
30.5615367440494
30.5614229961645
30.56131257178
30.5612217314033
30.5611345477671
30.5610616996598
30.5609937627856
30.5609352915829
30.5608818779729
30.5608359538338
30.5607921439213
30.5607567984209
30.5607129961746
30.5606687510676
30.5606501786923
30.5606701430623
30.56068988537
30.5607385702905
30.560775037167
30.5608339292042
30.5608740460563
30.5609282147272
30.5609557031652
22.3955882703194
20.6482227412661
19.5951976505916
19.0814861423974
19.0762799549992
19.5618632734433
20.5581391868413
22.0110367909875
23.8258703173432
25.817419490436
27.7760940412788
29.5096026440798
30.8320487513891
31.7868689945055
32.5972307941691
33.1669431448848
33.5452954609579
33.7483746567286
33.834262803783
33.8265209159859
33.7647659055917
33.663540482282
33.5457102333513
33.4178514396604
33.2918267672652
33.1694766320138
33.0563029131185
32.9518503125473
32.8582514495463
32.7741865879439
32.7001538378557
32.6346880814024
32.5775846142442
32.527535347421
32.4840969922106
32.4462084317032
32.4133985926307
32.3848463542529
32.3601373705155
32.3386502821872
32.3200501785774
32.3038711452302
32.2898558368125
32.2776535748376
32.267074509093
32.257853922824
32.2498536438364
32.2428730302296
32.2368125104525
32.2315200984202
32.2269253137505
32.222909866314
32.2194237559323
32.2163771173615
32.2137324144035
32.2114221036715
32.2094150718783
32.2076631823155
32.2061406278424
32.2048120048755
32.2036546168825
32.2026434649219
32.2017622636228
32.2009875321342
32.2003104498
32.1997122168962
32.1991940395518
32.1987307017741
32.1983282759794
32.1979652431636
32.1976536957136
32.1973702366955
32.1971277768795
32.1969041509746
32.1967141312758
32.1965349975132
32.1963874109613
32.196245026142
32.1961289394849
32.196015429042
32.1959226447374
32.1958331307413
32.1957585738447
32.1956888727766
32.1956289959111
32.1955741680906
32.1955272045679
32.1954820254201
32.1954460005036
32.195399067782
32.1953556069542
32.1953392731815
32.1953644702518
32.1953881170166
32.1954429766463
32.195483095812
32.1955471965322
32.195589530384
32.1956465199961
32.1956739074971
22.4796568861841
20.8472423815979
19.9333796621495
19.5860136596491
19.7904322308653
20.5347535631069
21.8355709641691
23.6052455228103
25.7065605070137
27.9112207581215
29.9870765341098
31.7452922272742
33.0200603427247
33.9238577006714
34.6801559826428
35.1921608866393
35.5168259893576
35.6727497586734
35.719423372984
35.6796071538978
35.5924376802141
35.471129391757
35.3377936381998
35.1979103575993
35.0627392464347
34.9333641999551
34.8148848004133
34.7063653079277
34.6096930099718
34.5232580683182
34.447417854975
34.3805380459059
34.3223372355489
34.2714107592707
34.2272754753741
34.1888155042428
34.1555400881723
34.1265964895342
34.1015614526587
34.0797944703558
34.0609572516654
34.0445713948077
34.0303790764232
34.0180205444791
34.0073070843092
33.99796702203
33.9898638022848
33.9827912735084
33.9766515844249
33.9712882067602
33.9666325842536
33.9625623892839
33.9590294144853
33.9559406308943
33.9532598888339
33.9509172352019
33.9488824224649
33.947105674279
33.9455617304254
33.944213957203
33.9430400238848
33.942013881501
33.9411200621286
33.9403333867882
33.9396463633903
33.9390384635391
33.9385129280755
33.9380418751542
33.9376337971336
33.9372644348139
33.9369485208488
33.9366600960967
33.9364143747969
33.9361866362636
33.935994297797
33.9358115984539
33.9356624413559
33.9355171880409
33.9353999084787
33.935284094505
33.9351902619391
33.9350990425781
33.935023457244
33.9349524670783
33.9348917311691
33.9348358359213
33.9347882926415
33.9347419889121
33.9347056729043
33.934655679786
33.9346141588399
33.9346003992636
33.9346309924178
33.934658455961
33.9347193821657
33.9347628081373
33.9348318162854
33.9348759165828
33.9349353232873
33.9349623719724
22.582857010332
21.0845033743955
20.3309933884664
20.1765118785932
20.6254981666987
21.6683866107733
23.3097412728844
25.415782108599
27.7995380182169
30.1925582690787
32.3493770158513
34.096515886291
35.2989919418235
36.1455080368657
36.8388175483889
37.2895328116928
37.5599013724708
37.6698211032008
37.6792407709388
37.6096820265992
37.4994395322301
37.3602987639465
37.2134957288697
37.0634287135946
36.9207197539547
36.7857380565373
36.663175429315
36.5516561350366
36.4528259563834
36.3648170076775
36.2878521236911
36.220151312147
36.1613626526408
36.1100015818467
36.0655505428878
36.0268504843519
35.9933955372462
35.9643093598899
35.9391635378586
35.9173039402604
35.8983920112497
35.8819405979712
35.8676940193493
35.8552859842761
35.8445310355388
35.835152270626
35.8270165189066
35.819913242648
35.8137477909604
35.808359778381
35.803683836452
35.7995939876059
35.7960448749986
35.7929405284707
35.7902470471875
35.7878921623364
35.7858472184385
35.7840608575309
35.7825088763715
35.7811534625661
35.7799731319518
35.778940666511
35.7780419822861
35.777249954615
35.7765589307455
35.775946365531
35.7754180670999
35.7749430771535
35.7745329490346
35.7741601981147
35.77384269089
35.7735515465096
35.7733047634108
35.7730746049099
35.7728817330146
35.772696760736
35.7725474498913
35.7724003094938
35.7722829711738
35.7721656039114
35.7720716027732
35.7719792797835
35.7719033404949
35.7718315166908
35.7717704710123
35.7717138295583
35.771666177689
35.7716189708814
35.7715827675639
35.7715298286757
35.7714913489626
35.77148045384
35.7715164953533
35.7715476138122
35.771614376872
35.7716606994023
35.7717342168195
35.7717796041814
35.7718409683458
35.7718674432085
22.7081756772841
21.3649054185001
20.7954145849905
20.8640721193316
21.5967558767007
22.9802235644794
24.9952988018097
27.4489034668152
30.1002677009306
32.6482444466971
34.8458183647401
36.5468186557046
37.657032062064
38.4406417294079
39.065333154482
39.4528684351525
39.6694034427305
39.7351290616019
39.709659598172
39.6129191597654
39.4820746038687
39.3274107201715
39.1692010604227
39.0107846171884
38.8621274033145
38.7229265687985
38.5974693797913
38.4839795819583
38.3838702385486
38.2950462555895
38.2176049829828
38.1496432075368
38.0907462656119
38.0393654666924
37.9949551002142
37.9563238011644
37.9229555402839
37.8939578184642
37.8689009340955
37.8471222206764
37.8282859770933
37.8118996940032
37.7977124089881
37.7853535843605
37.7746430601471
37.7653002546837
37.7571970755088
37.7501195853901
37.7439777650975
37.7386079473089
37.733949169699
37.7298721158456
37.7263353021906
37.7232399809961
37.7205553365586
37.7182068299472
37.7161681019207
37.7143862562385
37.712838612343
37.7114862288021
37.7103089243387
37.7092781672375
37.7083818285777
37.7075905690246
37.7069010842551
37.7062885126244
37.7057617450599
37.7052863194481
37.7048775095556
37.7045041193263
37.70418761867
37.7038958492615
37.7036500746488
37.7034190609532
37.7032273423606
37.7030412963687
37.7028931707108
37.7027450449629
37.7026287209505
37.7025104887922
37.7024171425322
37.7023242733295
37.702248618723
37.7021763815854
37.7021155531608
37.7020584493569
37.7020111503118
37.7019632300621
37.7019275416264
37.7018718250822
37.7018373710535
37.7018295736004
37.7018710316185
37.7019055787476
37.7019778660095
37.702026626767
37.7021041957742
37.7021503747552
37.7022132134917
37.7022388774956
22.8588673544838
21.693818004651
21.3349723712322
21.6612565183685
22.7210482896797
24.4882493813489
26.9053445164195
29.7076818148783
32.6011819161661
35.2638614598005
37.4603901365397
39.0828625229675
40.0865482995653
40.8025922797895
41.3554407195743
41.6793952420061
41.8434677418843
41.8673217361892
41.8096028827388
41.6883608981296
41.539420023659
41.3715215873698
41.2039199595897
41.0389245092962
40.8858406579691
40.7437364483396
40.6165047714751
40.5020068633979
40.4014355739016
40.3124977692716
40.2351763637705
40.1674659147743
40.1088977913907
40.0578737709415
40.0138266803759
39.9755427816062
39.9425009430443
39.9137992630137
39.889010562962
39.8674682108583
39.8488423455733
39.8326381175784
39.8186117001534
39.8063903404586
39.7958010520229
39.7865609386264
39.7785485253878
39.7715473441038
39.7654733105337
39.7601599716526
39.7555518713476
39.7515166260695
39.7480175434975
39.7449532433676
39.7422967400654
39.7399712687984
39.7379533847117
39.736188716536
39.7346564916438
39.7333167102323
39.7321508844124
39.7311290406764
39.7302415217467
39.729456530788
39.7287735748188
39.7281652021385
39.7276438381472
39.7271711249198
39.7267666716083
39.7263951340329
39.7260819919354
39.7257914965442
39.7255486057963
39.7253181466874
39.7251291130388
39.7249430798817
39.7247973532208
39.7246490549236
39.7245347133409
39.7244162409367
39.7243242832289
39.7242313802932
39.7241565835414
39.7240843199117
39.7240241862714
39.7239668750278
39.7239203527839
39.7238718874566
39.7238370903682
39.7237788335071
39.7237492358336
39.7237446986769
39.7237914825566
39.7238291767853
39.7239066238373
39.7239573299237
39.7240384636598
39.7240849317083
39.7241487607629
39.7241733729008
23.0384631542951
22.077135115758
21.9590656950707
22.5821791811763
24.0166230142991
26.2103738633875
29.0506667277164
32.1917091018954
35.2920901357835
38.0245195019971
40.1788537634927
41.6945494290548
42.5836733449007
43.2282399270286
43.7078115905507
43.9690181235298
44.082730818984
44.0674142192811
43.9802550468057
43.8372285143329
43.6726651498377
43.4937464432026
43.3186772653488
43.1487733856355
42.9926865676254
42.8488985723666
42.7209235504435
42.6062964677729
42.5060051956585
42.4175858267873
42.3409192089281
42.2739170271384
42.2160660095917
42.1657316928463
42.1223322612137
42.0846405470601
42.0521352813597
42.0239111740967
41.9995471906664
41.9783767589987
41.9600786146671
41.9441582053694
41.9303810216094
41.9183738706925
41.9079726014823
41.8988931931178
41.8910221219456
41.8841411644684
41.8781732941379
41.8729497202383
41.8684214251576
41.8644532246285
41.8610139827487
41.8579998477337
41.8553882720188
41.853100346398
41.8511160282664
41.8493795813212
41.8478724219194
41.8465536019235
41.8454066221969
41.8443999892003
41.8435269363389
41.8427530286207
41.842080970149
41.8414805008005
41.8409679324967
41.8405006955721
41.8401032589527
41.8397357799844
41.839428062843
41.839140527721
41.8389021658588
41.8386735079709
41.8384885041917
41.8383034531704
41.838161187055
41.838013440951
41.8379019184341
41.8377837712291
41.8376938262817
41.8376013618171
41.8375279128418
41.8374559808405
41.8373969527009
41.8373396691053
41.8372942918203
41.8372454385395
41.8372118664573
41.8371513757743
41.8371273070803
41.8371261059741
41.8371780947078
41.8372185981507
41.8373008242893
41.8373529497732
41.8374371623518
41.8374834072667
41.8375477664573
41.8375710711204
23.2507878384301
22.5213452341094
22.6782735686128
23.6425762590505
25.5028859806176
28.1637491789093
31.4390956635805
34.8970967991555
38.1608211080621
40.9156540786655
42.9892382961568
44.3750092497395
45.1478707789174
45.7172270547913
46.1234605262214
46.3237376611325
46.3897550259821
46.3382285660611
46.2245219493568
46.0624031344236
45.8846130058477
45.6967793974394
45.5160497692174
45.3427873886887
45.185006753069
45.040645622649
44.9128592980379
44.7988907713886
44.6995401089352
44.6121978929487
44.536656065102
44.4707610968242
44.4139646051465
44.3646078375121
44.3221010602131
44.2852116121877
44.2534228161987
44.2258312665842
44.2020254210349
44.1813422566724
44.1634715745626
44.1479214020429
44.1344684430252
44.122740603471
44.1125839868789
44.1037144853786
44.0960276221969
44.0893041321914
44.083474948264
44.0783693780921
44.0739455716514
44.0700658388366
44.0667051758665
44.0637574712204
44.0612050506104
44.0589670158932
44.0570270494813
44.0553282273707
44.0538543209599
44.052563594347
44.0514417190066
44.0504556813334
44.0496018924601
44.0488431902611
44.0481857565951
44.047596384544
44.0470955057565
44.0466361305106
44.0462479782863
44.0458864717058
44.0455859458781
44.0453028452498
44.0450704118627
44.0448446469578
44.0446648158893
44.0444816035927
44.0443436929287
44.0441971453217
44.0440891321281
44.0439718263121
44.0438844001889
44.0437928122921
44.0437211062345
44.0436498418332
44.0435922512026
44.0435352229536
44.0434912884907
44.0434422061023
44.0434101355693
44.0433477917382
44.0433297660208
44.043331881287
44.0433889450373
44.0434318652164
44.0435184975883
44.0435714866128
44.0436583145328
44.0437038140809
44.0437682814598
44.0437900044512
23.4999854730888
23.0336161231539
23.5044214823028
24.8598473573229
27.2000472420393
30.3640386256164
34.0750437545055
37.8167616465547
41.1940116430394
43.9237767324057
45.882186685847
47.120461063984
47.7815091044425
48.2713075339887
48.6052646721711
48.747199628083
48.7685944575166
48.6839765219574
48.5466308508614
48.3680419267892
48.1793115254568
47.9845382774228
47.7998229273865
47.6246210324611
47.4663338709406
47.3223965459566
47.1956286485186
47.0830134463446
46.9851816821437
46.8994016650623
46.8253899742585
46.7609438322139
46.7054892198997
46.6573537261213
46.6159461695253
46.5800353538458
46.5491135931055
46.5222839246358
46.4991473261526
46.4790473048144
46.4616868767936
46.4465786103697
46.433512009236
46.422117404327
46.4122523209772
46.4036334739609
46.3961662770683
46.3896311028534
46.3839675022895
46.3790033356958
46.3747044272242
46.3709309308706
46.3676643400262
46.364796572664
46.3623150684502
46.3601371971638
46.358250503315
46.3565971336005
46.3551632614124
46.3539065823043
46.35281499553
46.3518540668089
46.3510235167375
46.3502834797285
46.3496437719704
46.3490681996285
46.3485814156857
46.3481319328178
46.347754948494
46.3474010465253
46.3471091810897
46.346831788863
46.3466064376508
46.3463845175556
46.3462107973171
46.346030177589
46.3458973467532
46.3457525777851
46.3456486125426
46.3455326258319
46.345448105241
46.3453578052091
46.3452881377888
46.345217861123
46.3451619554851
46.3451054135086
46.3450631412016
46.3450140007344
46.3449836426173
46.3449199055794
46.3449082803507
46.3449135946861
46.3449756104988
46.3450205007689
46.345111194491
46.3451644617137
46.3452534793694
46.3452976992658
46.3453619033559
46.3453817472319
23.7905539394903
23.6218945120139
24.4507874625994
26.2530516513
29.1286485931177
32.8246923198587
36.9592844689653
40.9409585660887
44.3779541026523
47.0371162306367
48.8511402580003
49.9299769124042
50.4864552129729
50.8938060987055
51.1575876157742
51.2443511725572
51.2244713933076
51.1099529026138
50.9518386172605
50.7592990344692
50.5617855890658
50.361906220988
50.1747407986622
49.9988843186404
49.8411549716526
49.6985252581975
49.5735046126554
49.4628467225088
49.3670322945026
49.2832285980343
49.2110904667719
49.1483801882662
49.0945073428122
49.0477952179059
49.0076572981283
48.9728698779055
48.9429382840984
48.9169758771933
48.8945988476783
48.8751597346261
48.8583766030565
48.8437682224911
48.8311381856208
48.8201203712773
48.8105846599997
48.8022493785923
48.7950304441414
48.7887085097866
48.7832321775306
48.7784283295573
48.7742707698041
48.7706178914435
48.7674578594864
48.7646809783789
48.7622798669654
48.7601705088668
48.7583442824751
48.7567427266433
48.7553543674028
48.7541365933663
48.7530794834041
48.7521473674327
48.7513432702092
48.7506247419549
48.7500052770618
48.7494457412778
48.7489750047365
48.7485371169391
48.7481728299379
48.7478278969328
48.7475458828512
48.7472752826508
48.7470579397815
48.7468406860275
48.7466738249777
48.7464964517708
48.7463692668796
48.7462267943206
48.7461272766411
48.7460130485559
48.74593171372
48.7458430831714
48.7457756588619
48.7457066720017
48.7456526213714
48.7455967997819
48.7455563360009
48.7455073200548
48.7454788241573
48.7454142297133
48.7454092116345
48.7454175164368
48.7454843754253
48.7455307409207
48.7456251871203
48.7456781230249
48.745768949545
48.745811346811
48.7458749680691
48.7458926153776
24.1273879716251
24.2950213727297
25.5322484025772
27.8428312523113
31.3089781101777
35.5562987214629
40.0889976138242
44.2579988282814
47.6994226442292
50.2461114277542
51.8923710801212
52.8051859079454
53.2637991205012
53.5893513477071
53.785998189596
53.8211823880979
53.7635385191918
53.6223138824611
53.4462226658601
53.2421265531838
53.0378462177655
52.834547639446
52.646327731617
52.470969231931
52.3147421029447