/*--------------------------------*- C++ -*----------------------------------*\
| =========                 |                                                 |
| \\      /  F ield         | OpenFOAM: The Open Source CFD Toolbox           |
|  \\    /   O peration     | Version:  2.3.0                                 |
|   \\  /    A nd           | Web:      www.OpenFOAM.org                      |
|    \\/     M anipulation  |                                                 |
\*---------------------------------------------------------------------------*/
FoamFile
{
    version     2.0;
    format      ascii;
    class       volScalarField;
    location    "25000";
    object      p;
}
// * * * * * * * * * * * * * * * * * * * * * * * * * * * * * * * * * * * * * //

dimensions      [0 2 -2 0 0 0 0];

internalField   nonuniform List<scalar> 
10000
(
2.1849312409556
2.09838953652108
2.11330522228934
2.05555286681928
2.05609252518827
2.01450799388371
2.00590400676185
1.97349963140661
1.95964934972492
1.9323637550463
1.91556668756188
1.89108025223035
1.87257824505467
1.84957568191326
1.83002536933232
1.80779394161324
1.78757390526501
1.76574171769557
1.74508978072437
1.72346440245839
1.70253508624168
1.68101681202444
1.65991044875622
1.63844726751725
1.6172283112658
1.59579284949212
1.57450224840903
1.55308000363274
1.5317435823941
1.51032688792868
1.48896089762254
1.46754577934903
1.44616047909814
1.42474497502394
1.40334688752004
1.38193012933235
1.36052344837663
1.3391051518484
1.31769260877587
1.2962727859248
1.2748561863521
1.25343498585732
1.23201554196698
1.21059316040544
1.18917169470988
1.16774833106467
1.14632540935479
1.12490124539998
1.10347726200312
1.08205245370302
1.06062768681651
1.03920236284515
1.0177770124782
0.99635127921356
0.974925490384612
0.953499434768803
0.932073316200629
0.910647009819269
0.889220643011254
0.867794143496801
0.846367589982058
0.824940943849468
0.803514251653176
0.782087493995614
0.760660698814791
0.739233858399565
0.717806986240888
0.696380081442096
0.674953151390373
0.653526197826413
0.632099225878058
0.610672234557981
0.589245228576337
0.567818209714942
0.546391177093897
0.524964136313074
0.503537084829414
0.482110025356426
0.460682958864027
0.439255884966397
0.417828806826103
0.396401720211776
0.374974632146496
0.353547536505703
0.332120439227899
0.310693336343073
0.289266231568016
0.267839123971896
0.24641201214591
0.224984898716326
0.203557778625228
0.182130653262638
0.160703520611826
0.139276385311991
0.11784924541597
0.096422106190786
0.0749949674320363
0.0535678289401471
0.0321406962465831
0.0107135627475825
2.18488006965448
2.09836691970141
2.11328661190652
2.05553902174243
2.05607990447794
2.01449838502972
2.00589547670367
1.97349319165427
1.95964388780004
1.93235982264754
1.91556363793415
1.89107837770699
1.87257712411407
1.84957536915008
1.83002547748512
1.80779441829242
1.78757449953988
1.76574241322318
1.74509045088402
1.72346506039738
1.70253567471697
1.68101735327797
1.65991091887564
1.63844768739161
1.61722867184765
1.59579316713003
1.57450252035985
1.55308024169341
1.53174378635853
1.51032706599551
1.48896105051831
1.46754591269104
1.44616059387782
1.42474507508731
1.40334697385462
1.38193020458969
1.36052351343946
1.33910520856415
1.31769265789333
1.2962728287463
1.27485622349357
1.25343501824688
1.23201557010036
1.21059318495042
1.18917171605886
1.16774834970139
1.14632542558567
1.12490125957719
1.1034772743635
1.08205246450374
1.06062769623936
1.03920237107967
1.01777701966366
0.996351285490557
0.974925495860116
0.953499439548578
0.932073320367578
0.910647013453551
0.88922064617746
0.867794146256628
0.846367592386902
0.824940945946617
0.803514253482882
0.78208749559495
0.760660700215296
0.739233859627575
0.717806987319138
0.696380082390907
0.674953152227398
0.653526198566106
0.63209922653226
0.610672235137381
0.589245229090206
0.567818210171213
0.546391177500303
0.524964136675246
0.503537085152399
0.48211002564495
0.460682959121939
0.439255885197586
0.417828807033119
0.396401720397835
0.374974632313179
0.353547536655183
0.332120439361652
0.310693336462659
0.289266231674952
0.267839124066972
0.24641201223214
0.224984898795583
0.203557778690071
0.182130653296874
0.160703520605699
0.139276385262592
0.117849245327749
0.0964221060724357
0.0749949672949443
0.0535678287976667
0.0321406961110638
0.0107135626770463
2.18487525796865
2.09835850373212
2.11328257644096
2.05553602008203
2.05607740813357
2.01449644845443
2.00589391056819
1.97349195162242
1.95964292538679
1.93235905159238
1.91556307044182
1.8910779375231
1.87257683386909
1.84957518009078
1.83002540065999
1.80779441019456
1.78757454688506
1.76574248519939
1.74509053837728
1.72346514898725
1.70253576123678
1.68101743231818
1.65991099039931
1.63844775000538
1.61722872660831
1.59579321416014
1.57450256085922
1.55308027621684
1.53174381591498
1.51032709116104
1.48896107204926
1.46754593106125
1.44616060962522
1.42474508856913
1.40334698544528
1.38193021454938
1.36052352202788
1.33910521596888
1.31769266429573
1.29627283428196
1.2748562282907
1.25343502240432
1.23201557370994
1.21059318808476
1.18917171878459
1.16774835207224
1.14632542765047
1.12490126137581
1.103477275932
1.08205246587182
1.06062769743359
1.03920237212221
1.01777702057435
0.996351286285903
0.974925496554953
0.953499440155303
0.932073320897486
0.910647013916043
0.889220646581119
0.867794146608611
0.846367592693855
0.824940946214232
0.803514253716133
0.782087495798296
0.760660700392776
0.739233859782825
0.71780698745485
0.696380082509653
0.674953152331468
0.653526198657688
0.632099226612899
0.610672235208406
0.589245229152877
0.567818210226549
0.546391177549208
0.524964136718739
0.503537085191021
0.482110025679323
0.460682959152581
0.439255885224942
0.41782880705766
0.396401720419761
0.374974632332988
0.353547536672877
0.332120439377598
0.31069333647693
0.289266231687753
0.267839124078449
0.246412012242443
0.224984898803842
0.203557778696203
0.182130653301804
0.160703520607637
0.139276385260727
0.117849245321821
0.0964221060632234
0.0749949672833438
0.0535678287849546
0.0321406960984599
0.0107135626576845
2.18488584818115
2.09835249557266
2.11328301609445
2.05553573983167
2.05607801789234
2.01449649162502
2.00589445787882
1.97349206058181
1.95964330300502
1.93235907768468
1.91556321547661
1.89107781361716
1.87257675252048
1.84957495214974
1.83002524995434
1.80779422373952
1.78757442948655
1.76574235805601
1.745090455786
1.72346506319729
1.70253570237813
1.68101737216969
1.65991094648582
1.63844770578218
1.61722869249898
1.59579318044792
1.57450253377884
1.55308025001227
1.53174379429505
1.5103270706683
1.48896105486094
1.46754591506454
1.44616059607364
1.42474507614735
1.40334697485668
1.38193020496025
1.36052351381958
1.3391052086042
1.31769265797135
1.29627282864664
1.27485622343792
1.2534350181016
1.2320155699951
1.21059318480209
1.18917171594349
1.16774834956744
1.14632542547797
1.12490125946373
1.10347727427094
1.0820524644124
1.06062769616473
1.03920237100924
1.01777701960672
0.996351285438853
0.974925495818974
0.953499439512233
0.932073320339147
0.910647013429049
0.889220646158441
0.867794146240041
0.846367592373278
0.824940945934353
0.803514253471655
0.78208749558358
0.760660700203829
0.739233859616528
0.717806987307926
0.696380082379278
0.674953152215379
0.653526198554502
0.632099226521133
0.610672235126543
0.589245229079797
0.56781821016121
0.546391177490387
0.524964136666224
0.50353708514395
0.482110025637082
0.460682959114715
0.439255885190797
0.417828807027197
0.396401720392145
0.374974632308561
0.353547536650843
0.332120439358087
0.310693336459511
0.289266231672225
0.267839124064815
0.246412012229746
0.224984898790145
0.203557778684588
0.182130653299559
0.160703520614607
0.139276385276319
0.117849245343798
0.0964221060896963
0.0749949673117993
0.0535678288127964
0.0321406961235028
0.0107135626505077
2.18489924624695
2.09834480319424
2.11328366977737
2.05553529066695
2.05607883012956
2.01449647001365
2.00589514845037
1.97349212732697
1.95964375151588
1.93235904626538
1.91556336336794
1.8910776093263
1.87257662559726
1.84957464551279
1.83002506226311
1.80779399136318
1.78757429059409
1.76574220329679
1.74509035928016
1.72346495967862
1.7025356337096
1.68101729990771
1.65991089515803
1.63844765283205
1.61722865254807
1.59579314021956
1.57450250202349
1.55308021884935
1.53174376893539
1.51032704637551
1.48896103470371
1.46754589615339
1.44616058018738
1.42474506149485
1.40334696244817
1.38193019366814
1.36052350420262
1.33910519994216
1.31769265056216
1.29627282202415
1.27485621775239
1.25343501304786
1.23201556564207
1.21059318094765
1.1891717126136
1.16774834662691
1.14632542293119
1.12490125721934
1.10347727232346
1.0820524626997
1.06062769467712
1.03920236970349
1.01777701847247
0.996351284445463
0.974925494956527
0.953499438758383
0.93207331968505
0.910647012858377
0.889220645663384
0.867794145808213
0.846367591997734
0.824940945606367
0.803514253185097
0.782087495331715
0.760660699982067
0.739233859421318
0.717806987135433
0.696380082226135
0.674953152078945
0.653526198433229
0.63209922641332
0.610672235030383
0.58924522899396
0.567818210084476
0.546391177421268
0.524964136604556
0.503537085088701
0.482110025587499
0.460682959070295
0.439255885150706
0.417828806991471
0.396401720359732
0.374974632279951
0.353547536625033
0.332120439335256
0.310693336439149
0.28926623165405
0.267839124048891
0.246412012214657
0.224984898773598
0.203557778671375
0.182130653299017
0.160703520625625
0.139276385297729
0.117849245372475
0.0964221061231066
0.0749949673468007
0.0535678288461556
0.0321406961526126
0.0107135626408731
2.18491411725594
2.09833554294105
2.11328413302054
2.05553459753846
2.05607957332532
2.01449630925379
2.00589579880243
1.97349208798013
1.959644149242
1.93235891377001
1.9155634439356
1.89107730874104
1.87257642806305
1.84957427231664
1.83002484307018
1.80779373400398
1.78757414234998
1.76574203983511
1.74509026103296
1.72346485348673
1.70253556553903
1.68101722700686
1.6599108446728
1.63844759980567
1.61722861324756
1.59579310000583
1.57450247066571
1.55308018767935
1.53174374378636
1.51032702204828
1.48896101464337
1.46754587719513
1.44616056433612
1.42474504679421
1.40334695004374
1.38193018233266
1.36052349457572
1.33910519124335
1.31769264313765
1.2962728153713
1.2748562120503
1.25343500796926
1.23201556127314
1.21059317707291
1.18917170926937
1.16774834366993
1.14632542037212
1.12490125496189
1.10347727036595
1.08205246097702
1.06062769318183
1.03920236839044
1.01777701733268
0.996351283447044
0.974925494090374
0.95349943800124
0.932073319028549
0.91064701228562
0.889220645166801
0.867794145374974
0.846367591620976
0.824940945277211
0.803514252897351
0.782087495078508
0.760660699758849
0.739233859224753
0.717806986961613
0.69638008207162
0.6749531519411
0.653526198310649
0.632099226304342
0.610672234933158
0.589245228907134
0.56781821000683
0.546391177351225
0.524964136542099
0.503537085032764
0.482110025537276
0.460682959025324
0.439255885110057
0.417828806955308
0.396401720326874
0.374974632251039
0.353547536598942
0.33212043931222
0.310693336418637
0.289266231635707
0.267839124032876
0.246412012199083
0.224984898756101
0.203557778658503
0.182130653301499
0.160703520640986
0.139276385324099
0.117849245405931
0.0964221061606343
0.0749949673849184
0.0535678288813182
0.032140696182109
0.0107135626282293
2.18493065034036
2.09832521135248
2.11328455008939
2.05553386076593
2.05608033674869
2.01449613121765
2.00589646070463
1.97349201201332
1.95964452233399
1.93235871897428
1.91556347017863
1.89107693380806
1.87257616751459
1.84957384680959
1.83002459619297
1.80779345567503
1.78757398206286
1.765741866246
1.7450901566469
1.7234647416543
1.7025354937061
1.68101715055641
1.6599107917197
1.63844754435223
1.6172285721681
1.59579305806076
1.57450243799312
1.55308015525459
1.5317437176613
1.51032699680748
1.48896099385928
1.46754585756995
1.44616054794809
1.4247450316046
1.40334693724001
1.38193017063636
1.36052348465019
1.33910518227617
1.31769263548833
1.2962728085172
1.27485620617781
1.25343500273855
1.23201555677425
1.21059317308237
1.18917170582559
1.16774834062448
1.14632541773667
1.1249012526368
1.10347726834996
1.08205245920284
1.06062769164208
1.03920236703839
1.01777701615932
0.996351282419329
0.974925493199085
0.953499437222207
0.932073318353237
0.910647011696515
0.889220644656131
0.867794144929404
0.846367591233408
0.824940944938541
0.803514252601111
0.782087494817612
0.760660699528628
0.739233859022013
0.717806986782268
0.696380081912086
0.674953151798664
0.653526198183978
0.632099226191765
0.61067223483274
0.589245228817449
0.567818209926634
0.546391177278825
0.524964136477582
0.503537084975021
0.482110025485414
0.460682958978922
0.439255885068058
0.417828806918002
0.396401720292939
0.374974632221245
0.353547536572058
0.332120439288504
0.310693336397553
0.289266231616808
0.267839124016422
0.246412012182634
0.224984898737531
0.203557778646183
0.182130653307229
0.160703520660922
0.139276385355673
0.11784924544442
0.0964221062025125
0.0749949674263629
0.0535678289184331
0.0321406962121075
0.0107135626136408
2.18494873456473
2.09831408809385
2.11328496967687
2.05553315388164
2.05608114078857
2.01449597231701
2.00589713649713
1.97349191355127
1.95964486579734
1.93235846885904
1.91556343945851
1.89107649203773
1.87257584837723
1.84957338019839
1.8300243272514
1.80779316193548
1.78757381151597
1.76574168488184
1.74509004664505
1.72346462524316
1.702535418369
1.68101707113975
1.65991073642778
1.63844748689859
1.61722852949505
1.59579301475816
1.57450240423821
1.55308012191529
1.53174369080813
1.51032697095532
1.48896097258791
1.46754583753637
1.4461605312327
1.42474501613973
1.40334692421333
1.38193015875124
1.36052347456957
1.33910517317639
1.31769262772842
1.29627280156755
1.27485620022443
1.25343499743732
1.23201555221486
1.21059316903872
1.18917170233587
1.16774833753857
1.14632541506608
1.12490125028077
1.1034772663071
1.08205245740514
1.060627690082
1.03920236566861
1.0177770149707
0.996351281378401
0.974925492296519
0.953499436433397
0.932073317669547
0.910647011100151
0.889220644139201
0.867794144478319
0.846367590840923
0.82494094459551
0.80351425230087
0.782087494552991
0.7606606992949
0.739233858816196
0.71780698660015
0.696380081749999
0.674953151653853
0.653526198055188
0.632099226077352
0.610672234730709
0.589245228726317
0.567818209845163
0.546391177205216
0.524964136412029
0.503537084916396
0.482110025432734
0.460682958931828
0.43925588502537
0.417828806880146
0.396401720258455
0.374974632191029
0.353547536544792
0.332120439264469
0.310693336376221
0.289266231597631
0.267839123999773
0.246412012165479
0.224984898718339
0.203557778635011
0.18213065331643
0.160703520685336
0.139276385392084
0.11784924548737
0.0964221062480257
0.0749949674703641
0.0535678289567303
0.0321406962419677
0.0107135625976593
2.18496811319369
2.09830234993227
2.11328538687898
2.05553249355419
2.05608196930831
2.01449583078333
2.00589780412138
1.97349178340886
1.9596451613315
1.93235815845035
1.91556334359193
1.89107598637834
1.87257547500881
1.84957288282111
1.83002404204217
1.80779285886336
1.78757363425996
1.76574149969391
1.74508993359159
1.72346450704844
1.7025353415045
1.68101699084534
1.65991068037701
1.63844742905893
1.61722848650878
1.59579297136514
1.57450237043709
1.55308008865863
1.5317436640576
1.51032694527313
1.48896095148763
1.46754581770236
1.44616051470595
1.42474500086939
1.40334691136442
1.38193014703821
1.36052346464286
1.33910516422008
1.317692620095
1.29627279473296
1.27485619437153
1.25343499222601
1.2320155477335
1.21059316506414
1.18917169890594
1.16774833450526
1.14632541244104
1.12490124796474
1.10347726429894
1.08205245563794
1.06062768854851
1.03920236432217
1.01777701380253
0.996351280355444
0.974925491409745
0.953499435658422
0.932073316997963
0.910647010514365
0.88922064363148
0.867794144035199
0.846367590455235
0.824940944258347
0.803514252005567
0.782087494292501
0.760660699064573
0.739233858613389
0.717806986420629
0.696380081590128
0.674953151510913
0.653526197928036
0.632099225964437
0.610672234630033
0.589245228636372
0.567818209764772
0.546391177132513
0.524964136347316
0.503537084858569
0.482110025380733
0.460682958885381
0.439255884983188
0.417828806842815
0.39640172022438
0.374974632161235
0.353547536517899
0.332120439240779
0.310693336355234
0.289266231578698
0.267839123983393
0.246412012148024
0.224984898699204
0.203557778625667
0.18213065332919
0.16070352071386
0.139276385432596
0.117849245533788
0.0964221062960311
0.0749949675157546
0.0535678289951103
0.0321406962708164
0.0107135625806077
2.18498854794698
2.09829014697419
2.11328579588589
2.05553188763245
2.05608280550116
2.01449569940362
2.00589844212739
1.97349161130552
1.95964539368835
1.93235778414852
1.91556317769031
1.89107542140308
1.87257505448859
1.84957236484707
1.83002374543437
1.80779255168854
1.78757345358142
1.76574131412933
1.74508981985866
1.72346438953906
1.70253526494259
1.68101691153384
1.6599106250208
1.6384473722707
1.6172284443712
1.59579292900087
1.57450233751383
1.55308005635464
1.53174363813755
1.51032692043362
1.48896093112606
1.46754579858503
1.44616049880682
1.42474498618918
1.40334689903066
1.38193013579885
1.36052345512827
1.33910515563664
1.31769261278514
1.29627278818778
1.27485618876931
1.25343498723712
1.23201554344464
1.21059316125937
1.18917169562307
1.16774833160125
1.14632540992812
1.1249012457471
1.10347726237622
1.08205245394569
1.06062768708025
1.03920236303289
1.01777701268417
0.996351279376097
0.974925490561017
0.953499434916682
0.93207331635532
0.910647009953813
0.889220643145679
0.867794143611124
0.846367590085977
0.824940943935472
0.803514251722573
0.782087494042625
0.76066069884336
0.739233858418627
0.717806986248149
0.69638008143642
0.674953151373365
0.653526197805634
0.632099225855775
0.610672234533163
0.589245228549786
0.567818209687403
0.546391177062454
0.524964136284988
0.503537084802915
0.482110025330634
0.460682958840678
0.439255884942488
0.417828806806883
0.396401720191494
0.374974632132547
0.353547536491995
0.332120439217971
0.310693336335071
0.289266231560434
0.267839123967654
0.246412012130622
0.22498489868073
0.203557778618677
0.182130653345399
0.160703520745951
0.139276385476351
0.117849245582629
0.0964221063454041
0.0749949675614543
0.0535678290326214
0.0321406962979683
0.0107135625627777
2.1850098403932
2.09827761409718
2.11328619651567
2.05553134177405
2.0560836360835
2.01449557018981
2.00589903301148
1.97349138922155
1.95964555263298
1.93235734532502
1.91556294084253
1.89107480379055
1.872574595718
1.84957183596124
1.8300234417429
1.80779224476153
1.78757327227869
1.76574113093326
1.74508970736442
1.72346427463196
1.70253519012294
1.68101683463189
1.65991057148369
1.63844731762554
1.61722840396847
1.59579288850622
1.57450230616286
1.55308002564895
1.53174361358685
1.51032689692968
1.48896091191763
1.46754578055881
1.44616048385199
1.42474497238263
1.40334688745311
1.3819301252476
1.36052344620892
1.33910514758826
1.31769260593792
1.29627278205478
1.27485618352345
1.25343498256372
1.23201553942867
1.21059315769514
1.18917169254847
1.16774832888034
1.14632540757396
1.12490124366883
1.10347726057452
1.08205245235956
1.06062768570428
1.03920236182442
1.01777701163615
0.996351278458289
0.97492548976588
0.953499434221723
0.932073315753369
0.910647009428719
0.889220642690659
0.867794143213824
0.846367589739874
0.824940943632773
0.803514251457056
0.782087493807925
0.760660698635288
0.739233858235466
0.717806986085844
0.696380081291666
0.67495315124371
0.65352619769019
0.632099225753318
0.610672234441838
0.589245228468098
0.567818209614434
0.546391176996279
0.524964136226135
0.503537084750403
0.482110025283303
0.46068295879849
0.439255884903954
0.417828806772964
0.396401720160344
0.374974632105443
0.353547536467508
0.332120439196419
0.310693336316066
0.289266231543137
0.267839123952821
0.246412012113555
0.224984898663405
0.203557778614385
0.182130653364786
0.160703520780968
0.139276385522466
0.117849245632896
0.0964221063951441
0.0749949676065609
0.0535678290685258
0.0321406963229592
0.0107135625444504
2.18503182058749
2.09826486961554
2.11328659038776
2.0555308578896
2.05608444880999
2.01449543373179
2.00589956210104
1.97349111099701
1.95964563184023
1.93235684357677
1.91556263510594
1.89107414169264
1.872574107993
1.84957130487393
1.83002313525461
1.80779194178186
1.78757309278801
1.76574095234093
1.74508959770658
1.72346416384764
1.70253511820546
1.68101676124846
1.65991052064723
1.63844726595603
1.61722836597791
1.59579285050979
1.57450227690209
1.55307999701436
1.53174359079817
1.5103268751151
1.48896089415804
1.46754576388763
1.44616047006342
1.42474495964661
1.40334687679831
1.38193011553157
1.36052343801001
1.33910514018525
1.3176925996477
1.296272776417
1.27485617870531
1.25343497826857
1.23201553573972
1.210593154419
1.18917168972332
1.16774832637868
1.14632540540994
1.12490124175742
1.10347725891771
1.08205245090047
1.06062768443877
1.03920236071263
1.01777701067225
0.996351277614029
0.974925489034745
0.953499433582606
0.932073315199972
0.910647008945923
0.889220642272349
0.867794142848482
0.846367589421436
0.824940943354201
0.803514251212498
0.782087493591484
0.760660698443094
0.739233858066327
0.71780698593585
0.69638008115777
0.674953151123669
0.653526197583224
0.632099225658403
0.610672234357248
0.589245228392355
0.567818209546804
0.546391176934834
0.524964136171504
0.503537084701697
0.482110025239326
0.46068295875934
0.439255884868052
0.417828806741474
0.396401720131305
0.374974632080244
0.35354753644473
0.33212043917637
0.310693336298447
0.289266231527007
0.267839123939067
0.246412012097052
0.224984898647597
0.203557778612965
0.182130653386976
0.160703520818224
0.139276385570078
0.117849245683671
0.0964221064443747
0.0749949676503278
0.0535678291022609
0.0321406963454849
0.0107135625258783
2.1850543399423
2.0982520156886
2.11328697877299
2.05553043378407
2.05608523132874
2.01449527949904
2.00590001721484
1.973490772302
1.95964562817383
1.93235628224956
1.91556226477197
1.89107344424763
1.87257360049761
1.84957077900502
1.83002283002803
1.80779164589722
1.78757291723675
1.76574078018679
1.74508949222748
1.72346405839869
1.70253505012792
1.68101669224286
1.6599104731979
1.63844721788833
1.61722833090798
1.59579281546989
1.57450225010667
1.55307997078493
1.53174357004636
1.51032685523235
1.4889608780479
1.46754574874744
1.44616045758763
1.42474494810931
1.40334686717379
1.3819301067448
1.36052343061101
1.33910513349715
1.31769259397367
1.29627277132628
1.27485617435931
1.25343497439058
1.23201553241136
1.21059315146041
1.18917168717309
1.16774832411862
1.14632540345545
1.1249012400299
1.10347725742058
1.08205244958134
1.06062768329493
1.03920235970732
1.01777700980097
0.996351276850722
0.974925488374019
0.953499433004904
0.932073314699966
0.91064700850963
0.889220641894393
0.867794142518289
0.846367589133445
0.824940943102205
0.80351425099107
0.782087493395241
0.760660698268515
0.739233857912746
0.717806985799517
0.696380081035942
0.674953151014344
0.653526197485709
0.632099225571886
0.61067223428016
0.589245228323228
0.567818209485114
0.546391176878668
0.524964136121572
0.503537084657215
0.482110025199077
0.460682958723562
0.439255884835073
0.417828806712678
0.396401720104616
0.374974632057157
0.353547536423848
0.332120439157982
0.310693336282353
0.28926623151217
0.267839123926507
0.246412012081309
0.224984898633571
0.203557778614446
0.182130653411532
0.160703520857041
0.139276385618378
0.117849245734135
0.0964221064923505
0.0749949676921551
0.0535678291334176
0.0321406963653681
0.0107135625072774
2.18507726820591
2.09823913990837
2.11328736192943
2.05553006369112
2.05608597116336
2.0144950967541
2.00590038883328
1.97349037079228
1.95964554126484
1.93235566615707
1.91556183585855
1.89107272120812
1.87257308204255
1.84957026436412
1.83002252965574
1.80779135973422
1.78757274744734
1.76574061594939
1.74508939202925
1.72346395922538
1.70253498662338
1.6810166282536
1.65991042964514
1.63844717386683
1.61722829911631
1.59579278369622
1.57450222602628
1.55307994717501
1.53174355150442
1.51032683742909
1.48896086370676
1.4675457352401
1.44616044650764
1.4247449378416
1.40334685863788
1.38193009893729
1.36052342405355
1.33910512755986
1.31769258894605
1.29627276680884
1.27485617050776
1.25343497094921
1.23201552946028
1.21059314883398
1.18917168491041
1.16774832211124
1.14632540172008
1.12490123849468
1.10347725609043
1.08205244840855
1.06062768227831
1.03920235881333
1.01777700902648
0.996351276172009
0.974925487786847
0.953499432491349
0.932073314255721
0.910647008121902
0.889220641558579
0.867794142224817
0.84636758887728
0.824940942878004
0.80351425079387
0.782087493220191
0.760660698112459
0.739233857775533
0.717806985677556
0.696380080926821
0.674953150916333
0.653526197398176
0.632099225494229
0.610672234210986
0.589245228261076
0.567818209429687
0.54639117682808
0.524964136076599
0.503537084617183
0.482110025162756
0.460682958691334
0.439255884805173
0.417828806686716
0.396401720080409
0.374974632036291
0.353547536404964
0.332120439141336
0.310693336267859
0.289266231498696
0.267839123915201
0.246412012066486
0.224984898621497
0.203557778618725
0.182130653437989
0.160703520896769
0.139276385666638
0.117849245783587
0.0964221065384607
0.0749949677315803
0.0535678291617119
0.0321406963825291
0.0107135624888173
2.18510049134805
2.09822631682147
2.11328773880206
2.05552973891966
2.05608665603992
2.01449487544223
2.00590067022435
1.97348990611694
1.95964537310945
1.93235500130038
1.91556135566179
1.89107198260401
1.87257256081908
1.84956976552718
1.83002223716756
1.8077910854237
1.78757258493764
1.76574046078166
1.74508929798346
1.72346386702149
1.70253492823388
1.68101656972145
1.65991039033724
1.63844713417535
1.61722827082632
1.59579275536921
1.57450220480135
1.55307992629653
1.53174353525832
1.51032682177299
1.48896085118604
1.46754572340578
1.44616043685377
1.42474492886714
1.40334685120848
1.38193009212311
1.3605234183484
1.33910512238197
1.31769258457157
1.29627276287018
1.27485616715508
1.25343496794819
1.23201552688958
1.21059314654239
1.18917168293756
1.16774832035854
1.14632540020554
1.12490123715326
1.10347725492855
1.08205244738325
1.06062768138987
1.03920235803151
1.01777700834952
0.996351275578518
0.974925487273757
0.953499432042396
0.932073313867624
0.91064700778308
0.889220641265201
0.867794141968344
0.846367588653192
0.824940942681833
0.803514250621129
0.78208749306657
0.760660697975168
0.739233857654908
0.717806985570161
0.696380080830589
0.674953150829821
0.653526197320792
0.632099225425577
0.610672234149858
0.589245228206008
0.567818209380622
0.546391176783169
0.524964136036665
0.503537084581667
0.482110025130421
0.46068295866271
0.439255884778402
0.41782880666363
0.396401720058732
0.374974632017678
0.353547536388113
0.332120439126454
0.310693336254988
0.289266231486608
0.26783912390517
0.246412012052709
0.224984898611464
0.203557778625601
0.18213065346588
0.160703520936816
0.139276385714222
0.117849245831438
0.0964221065822232
0.0749949677682666
0.0535678291869787
0.0321406963969681
0.0107135624706363
2.18512390953581
2.09821360918976
2.11328810683093
2.05552944848623
2.05608727432221
2.01449460688246
2.00590085739702
1.97348937976489
1.959645127648
1.93235429456963
1.91556083233466
1.89107123840619
1.87257204420599
1.84956928570442
1.83002195503406
1.80779082463558
1.78757243092895
1.76574031554046
1.74508921074521
1.7234637822607
1.70253487532788
1.68101651691389
1.65991035548014
1.6384470989596
1.61722824614588
1.59579273056019
1.57450218648031
1.55307990817652
1.53174352132215
1.51032680826656
1.48896084048183
1.46754571323507
1.44616042861419
1.42474492117211
1.40334684487149
1.38193008628805
1.36052341348209
1.33910511795076
1.31769258083862
1.2962727594997
1.27485616429181
1.25343496537904
1.23201552469181
1.21059314457907
1.1891716812488
1.16774831885548
1.14632539890746
1.12490123600183
1.10347725393164
1.08205244650253
1.06062768062709
1.03920235735963
1.01777700776815
0.996351275068545
0.974925486833255
0.95349943165674
0.932073313534538
0.910647007492177
0.889220641013405
0.867794141748138
0.846367588460561
0.824940942513163
0.803514250472407
0.782087492934024
0.760660697856366
0.739233857550631
0.717806985477121
0.696380080747068
0.674953150754669
0.653526197253442
0.632099225365824
0.610672234096679
0.589245228157939
0.567818209337842
0.546391176743877
0.524964136001714
0.503537084550613
0.482110025102019
0.460682958637645
0.439255884754724
0.417828806643384
0.396401720039561
0.374974632001292
0.353547536373274
0.332120439113317
0.310693336243719
0.289266231475891
0.267839123896403
0.24641201204008
0.224984898603494
0.203557778634797
0.182130653494752
0.160703520976654
0.139276385760591
0.117849245877223
0.0964221066232761
0.0749949678019888
0.0535678292091434
0.0321406964087475
0.0107135624528333
2.18514743524043
2.09820106908599
2.11328846189353
2.0555291797769
2.05608781549212
2.01449428423425
2.00590094891106
1.97348879482033
1.95964481035489
1.93235355345231
1.91556027450251
1.89107049798587
1.87257153863934
1.84956882711637
1.83002168522276
1.80779057862016
1.78757228636072
1.7657401808162
1.74508913077054
1.72346370522309
1.70253482811971
1.68101646994957
1.65991032515737
1.63844706824943
1.6172282250862
1.59579270925107
1.57450217103655
1.55307989277387
1.53174350965272
1.51032679686101
1.48896083154697
1.46754570468018
1.44616042174456
1.42474491471404
1.40334683958848
1.38193008139649
1.36052340942289
1.33910511423744
1.31769257772184
1.29627275667473
1.27485616189812
1.25343496322422
1.23201552285168
1.21059314293057
1.18917167983245
1.16774831759183
1.14632539781695
1.1249012350326
1.10347725309292
1.08205244576047
1.0606276799848
1.0392023567932
1.01777700727843
0.996351274638662
0.974925486462351
0.953499431331777
0.932073313254191
0.910647007247222
0.889220640801481
0.867794141562721
0.846367588298118
0.824940942370898
0.803514250346768
0.782087492821758
0.760660697755384
0.739233857462114
0.717806985397927
0.696380080675815
0.674953150690497
0.653526197195793
0.632099225314675
0.610672234051188
0.589245228116634
0.567818209301139