/*--------------------------------*- C++ -*----------------------------------*\
| =========                 |                                                 |
| \\      /  F ield         | OpenFOAM: The Open Source CFD Toolbox           |
|  \\    /   O peration     | Version:  2.3.0                                 |
|   \\  /    A nd           | Web:      www.OpenFOAM.org                      |
|    \\/     M anipulation  |                                                 |
\*---------------------------------------------------------------------------*/
FoamFile
{
    version     2.0;
    format      ascii;
    class       surfaceScalarField;
    location    "25000";
    object      phi;
}
// * * * * * * * * * * * * * * * * * * * * * * * * * * * * * * * * * * * * * //

dimensions      [0 3 -1 0 0 0 0];

internalField   nonuniform List<scalar> 
19800
(
4.70691394551528e-08
-2.65312648183027e-09
4.8113883876701e-08
-1.04474442154774e-09
4.90822205921048e-08
-9.68336715405419e-10
4.98617211945177e-08
-7.79500602411486e-10
5.06066341884264e-08
-7.44912993899225e-10
5.1220779892934e-08
-6.14145704515991e-10
5.17946132207456e-08
-5.73833327820318e-10
5.22572563657744e-08
-4.62643145021719e-10
5.26645919806205e-08
-4.07335614845304e-10
5.29681640628547e-08
-3.03572082233051e-10
5.32048680708408e-08
-2.36704007989293e-10
5.33486501671159e-08
-1.43782096276083e-10
5.34302938753781e-08
-8.16437082596792e-11
5.34487582604673e-08
-1.84643850880232e-11
5.34360607841393e-08
1.26974763259063e-11
5.33984283297616e-08
3.76324543746335e-11
5.33540375021571e-08
4.43908276046302e-11
5.33043036697125e-08
4.97338324425297e-11
5.32573690636735e-08
4.69346060364766e-11
5.32122638671274e-08
4.51051965402726e-11
5.31723558266727e-08
3.99080404608544e-11
5.31361120235893e-08
3.62438030856409e-11
5.31048201981274e-08
3.12918254646361e-11
5.30770983701653e-08
2.77218279597096e-11
5.30533707687105e-08
2.37276014520235e-11
5.30325823852888e-08
2.0788383426657e-11
5.30148164504208e-08
1.77659348714243e-11
5.29993233363154e-08
1.54931141051671e-11
5.29860619845098e-08
1.32613518021946e-11
5.2974516199149e-08
1.15457853599667e-11
5.29646074619827e-08
9.90873716750404e-12
5.29559837967014e-08
8.62366527954773e-12
5.29485626318734e-08
7.42116482960523e-12
5.29421033636639e-08
6.45926820038566e-12
5.29365312344908e-08
5.57212916958495e-12
5.29316802704582e-08
4.85096403393897e-12
5.29274869262498e-08
4.19334420542164e-12
5.2923835341292e-08
3.65158495914819e-12
5.29206732653257e-08
3.16207596624877e-12
5.2917918818167e-08
2.75444716052671e-12
5.29155299165632e-08
2.38890160255766e-12
5.29134480542264e-08
2.08186233721436e-12
5.29116398671422e-08
1.80818708116204e-12
5.29100631550247e-08
1.57671211956779e-12
5.29086918013278e-08
1.37135369419547e-12
5.29074951715227e-08
1.19662980717399e-12
5.29064530451799e-08
1.04212634128554e-12
5.29055430785585e-08
9.09966623737408e-13
5.29047497476075e-08
7.93330947792195e-13
5.29040567130349e-08
6.93034570740779e-13
5.29034521146832e-08
6.04598355403392e-13
5.29029238904928e-08
5.2822418647184e-13
5.29024629924478e-08
4.60898045794161e-13
5.29020604563289e-08
4.02536116050994e-13
5.29017093523875e-08
3.51103942432427e-13
5.29014029247556e-08
3.06427632798371e-13
5.29011358161373e-08
2.67108619116595e-13
5.29009028982092e-08
2.32917924635007e-13
5.29007000022828e-08
2.02895927734655e-13
5.2900523172883e-08
1.76829400984758e-13
5.29003690953694e-08
1.54077514691986e-13
5.29002347409221e-08
1.34354445244303e-13
5.2900117511329e-08
1.17229594518965e-13
5.29000150291513e-08
1.02482177172299e-13
5.28999252668055e-08
8.97623433781949e-14
5.28998465497218e-08
7.87170834138801e-14
5.28997774107997e-08
6.9138922422728e-14
5.28997165491767e-08
6.08616236877257e-14
5.28996628339996e-08
5.37151760360679e-14
5.28996153517034e-08
4.74822955510555e-14
5.28995733438677e-08
4.20078363833441e-14
5.28995361253261e-08
3.72185421984405e-14
5.28995031046821e-08
3.30206437422147e-14
5.28994737737383e-08
2.93309458266836e-14
5.2899447635096e-08
2.6138642237372e-14
5.28994243374404e-08
2.32976537590323e-14
5.289940355462e-08
2.07828196749988e-14
5.28993849844635e-08
1.85701559490601e-14
5.28993683810202e-08
1.66034436586267e-14
5.2899353494393e-08
1.48866280452593e-14
5.28993401648684e-08
1.33295243262059e-14
5.28993281808338e-08
1.19840337333642e-14
5.28993174493927e-08
1.0731440618074e-14
5.28993078236726e-08
9.62571857456742e-15
5.28992992138488e-08
8.6098238892268e-15
5.28992915168557e-08
7.69699256850188e-15
5.28992846354663e-08
6.88138980872689e-15
5.28992785204666e-08
6.11500055062538e-15
5.28992729724733e-08
5.54799327790808e-15
5.28992678349311e-08
5.13754237688191e-15
5.28992636092115e-08
4.22571977958408e-15
5.2899261432349e-08
2.17686282068753e-15
5.28992619175433e-08
-4.85194812221817e-16
5.28992652361037e-08
-3.318545979011e-15
5.28992710752025e-08
-5.83911314469301e-15
5.28992788663396e-08
-7.79113683841973e-15
5.28992878598959e-08
-8.99355646507887e-15
5.28992971862948e-08
-9.3263845427361e-15
5.28993060410447e-08
-8.85476466117265e-15
-4.13137795409698e-15
1.32751022542943e-07
-1.01394589588139e-08
1.35678413657914e-07
-3.97213553652635e-09
1.38417376087481e-07
-3.70729914496329e-09
1.405989510518e-07
-2.96107556673091e-09
1.42701154765453e-07
-2.84711670757641e-09
1.4441738595425e-07
-2.3303768933407e-09
1.46030609916932e-07
-2.18705729051372e-09
1.47318373837473e-07
-1.7504070655675e-09
1.4845627815671e-07
-1.54523993408942e-09
1.49294604924721e-07
-1.14189885024623e-09
1.49949130830674e-07
-8.91229913964479e-10
1.50339769069962e-07
-5.34420335553648e-10
1.50560693893859e-07
-3.02568532172319e-10
1.50605517883393e-07
-6.32883746325784e-11
1.50567428030656e-07
5.07873290724998e-11
1.5046036089277e-07
1.44699592265803e-10
1.50336336597e-07
1.68415123366246e-10
1.50197294389717e-07
1.88776039722276e-10
1.50066844538494e-07
1.77384457252897e-10
1.49941237370566e-07
1.70712364470465e-10
1.49830469487945e-07
1.50675923107274e-10
1.49729697795076e-07
1.37015495954285e-10
1.49642896998526e-07
1.18092622012368e-10
1.4956589191192e-07
1.04726914571468e-10
1.49500102001171e-07
8.95175121959168e-11
1.49442399040794e-07
7.84913437997018e-11
1.49393159013306e-07
6.70059623538236e-11
1.49350182189293e-07
5.84699381183928e-11
1.49313441317969e-07
5.00022231288277e-11
1.49281432474479e-07
4.35546288571741e-11
1.49253989735868e-07
3.73514757724864e-11
1.49230093641564e-07
3.25197595976783e-11
1.49209546381496e-07
2.79684249119791e-11
1.49191654826248e-07
2.43508234506559e-11
1.49176230537161e-07
2.0996418249397e-11
1.49162797845818e-07
1.82836553641941e-11
1.49151192035218e-07
1.57991547998502e-11
1.49141082695441e-07
1.37609247413225e-11
1.49132331981743e-07
1.19127896699934e-11
1.49124707463386e-07
1.03789655100019e-11
1.49118096783535e-07
8.99958145993623e-12
1.49112334553468e-07
7.84409240834793e-12
1.49107330941412e-07
6.81179912513218e-12
1.49102967089672e-07
5.94056386535227e-12
1.490991722512e-07
5.16619216537294e-12
1.49095860413802e-07
4.50846720161772e-12
1.49092976553584e-07
3.92598655691982e-12
1.49090458101432e-07
3.42841877379531e-12
1.4908826266612e-07
2.98876626803707e-12
1.49086344593244e-07
2.61110744432591e-12
1.49084671408843e-07
2.27778276300592e-12
1.49083209466921e-07
1.99016610663385e-12
1.49081933940501e-07
1.73642445985602e-12
1.49080819861298e-07
1.51661532400899e-12
1.49079848181835e-07
1.32278340502935e-12
1.49079000103685e-07
1.15450580214135e-12
1.49078260878061e-07
1.00633424236361e-12
1.49077616250939e-07
8.77545042749507e-13
1.49077054730797e-07
7.6441606756235e-13
1.49076565332287e-07
6.66227900490132e-13
1.49076138904514e-07
5.80505282200696e-13
1.49075767047117e-07
5.06211836043852e-13
1.4907544258228e-07
4.41694426278407e-13
1.49075158917516e-07
3.86146932082487e-13
1.49074910448112e-07
3.38231746782172e-13
1.49074692545956e-07
2.96619238200992e-13
1.49074501156349e-07
2.60528524603528e-13
1.49074332675233e-07
2.29342747421733e-13
1.49074183973758e-07
2.0241665190275e-13
1.49074052524957e-07
1.78931098399991e-13
1.49073936234128e-07
1.58298667016198e-13
1.49073833204233e-07
1.40248434533885e-13
1.49073741796071e-07
1.24428801548939e-13
1.49073660603859e-07
1.10523158171744e-13
1.49073588245774e-07
9.84967277256793e-14
1.49073523753201e-07
8.77902245390637e-14
1.49073466223649e-07
7.83123607254701e-14
1.49073414817752e-07
6.99760538657218e-14
1.4907336885693e-07
6.25642633078291e-14
1.4907332764384e-07
5.60997175347443e-14
1.4907329074297e-07
5.02303938461247e-14
1.49073257563248e-07
4.51637557935586e-14
1.49073227853614e-07
4.04410762250991e-14
1.49073201204432e-07
3.62748971038302e-14
1.49073177368816e-07
3.24454415227036e-14
1.49073156061473e-07
2.90043345986125e-14
1.49073137010091e-07
2.59327718287362e-14
1.49073120082714e-07
2.30423757048778e-14
1.49073104706779e-07
2.09239284625349e-14
1.49073090474723e-07
1.93695988974777e-14
1.49073078862096e-07
1.58383459002174e-14
1.49073073062723e-07
7.97623578285045e-15
1.49073074723074e-07
-2.14554744143382e-15
1.49073084267725e-07
-1.28631869627728e-14
1.49073100776233e-07
-2.23476299722609e-14
1.49073122632246e-07
-2.96471474184991e-14
1.49073147734101e-07
-3.40954127289998e-14
1.49073173650381e-07
-3.52426566424934e-14
1.49073198154697e-07
-3.33590895756057e-14
-1.55286982053776e-14
2.06734307940522e-07
-2.17968130619292e-08
2.11258077450486e-07
-8.49590504649249e-09
2.15525805100096e-07
-7.97502679459957e-09
2.18887264047247e-07
-6.32253451392643e-09
2.22150260955934e-07
-6.11011361628716e-09
2.24783315679049e-07
-4.96343161647069e-09
2.27269201672037e-07
-4.67294328353136e-09
2.29226795485632e-07
-3.70800087917573e-09
2.30957773330291e-07
-3.27621777875772e-09
2.32210598236006e-07
-2.39472375596073e-09
2.33185098130037e-07
-1.86572980796343e-09
2.33749331978155e-07
-1.09865418367583e-09
2.34062691089591e-07
-6.15927643592192e-10
2.34111785761579e-07
-1.12383046644659e-10
2.34044672618977e-07
1.1790047165267e-10
2.33875996121554e-07
3.13376089709603e-10
2.33685996437943e-07
3.58414806961426e-10
2.33473790190006e-07
4.00982287664554e-10
2.33276335758383e-07
3.74838888866691e-10
2.33086042699328e-07
3.61005423521193e-10
2.32918958852491e-07
3.17759769930532e-10
2.32766742869865e-07
2.89231478617274e-10
2.32636020674169e-07
2.48814817726023e-10
2.3251990966913e-07
2.20837919619844e-10
2.32420941330961e-07
1.88485850386959e-10
2.32334056066747e-07
1.6537660803442e-10
2.32260057578578e-07
1.41004450495746e-10
2.32195425692795e-07
1.23101823875868e-10
2.32140261781742e-07
1.05166134195821e-10
2.32092176949854e-07
9.16394607295173e-11
2.32051006993694e-07
7.85214319371689e-11
2.32015142676705e-07
6.83840765921598e-11
2.31984338088595e-07
5.87730130330107e-11
2.31957505606902e-07
5.11833051394831e-11
2.31934393346524e-07
4.41086786191945e-11
2.31914259287364e-07
3.84177145465908e-11
2.31896875164205e-07
3.3183277961757e-11
2.31881728502378e-07
2.89075865659649e-11
2.31868624122636e-07
2.5017169438213e-11
2.31857203469062e-07
2.1799619068122e-11
2.31847305185713e-07
1.88978648043418e-11
2.3183867539708e-07
1.64738810271999e-11
2.31831183825982e-07
1.43033702171166e-11
2.31824648816941e-07
1.2475572911716e-11
2.31818967054594e-07
1.08479545063665e-11
2.31814007574467e-07
9.46794733819534e-12
2.31809689605342e-07
8.24395569104145e-12
2.31805918176648e-07
7.19984744171697e-12
2.31802630811499e-07
6.27613142023551e-12
2.31799758394694e-07
5.48352424673495e-12
2.31797252916397e-07
4.78326106001144e-12
2.31795063536292e-07
4.17954622513799e-12
2.31793153458943e-07
3.64650181329047e-12
2.31791485019588e-07
3.18505467314865e-12
2.31790029931053e-07
2.77787193477754e-12
2.31788759862125e-07
2.42457473299327e-12
2.31787652864706e-07
2.11333166952849e-12
2.31786687484665e-07
1.84292508225123e-12
2.31785846592085e-07
1.60530864430752e-12
2.31785113666198e-07
1.399153781554e-12
2.3178447503625e-07
1.21913522780798e-12
2.31783918095049e-07
1.06315303614844e-12
2.31783432113006e-07
9.27676474458513e-13
2.31783007193533e-07
8.11066398176468e-13
2.31782634952917e-07
7.10472366166573e-13
2.31782308487592e-07
6.23084560364098e-13
2.31782021737315e-07
5.47278801099641e-13
2.31781769296249e-07
4.8178381345761e-13
2.31781546479883e-07
4.25233001628607e-13
2.31781349509022e-07
3.75901956864449e-13
2.31781175258216e-07
3.32549469439795e-13
2.31781020885888e-07
2.94620764454639e-13
2.31780883928613e-07
2.61386082892677e-13
2.31780762283185e-07
2.32168573945147e-13
2.31780653865852e-07
2.06914054030732e-13
2.31780557235108e-07
1.84420965707694e-13
2.31780471041631e-07
1.64505837750263e-13
2.31780394018032e-07
1.46999651840796e-13
2.31780325154782e-07
1.31427519440545e-13
2.31780263390661e-07
1.17863844173771e-13
2.31780208092094e-07
1.05528953007296e-13
2.31780158359767e-07
9.48960763211694e-14
2.31780113832902e-07
8.49679465564678e-14
2.31780073891867e-07
7.62159351995075e-14
2.31780038169368e-07
6.81679439127411e-14
2.31780006240351e-07
6.09333560875219e-14
2.31779977685689e-07
5.44874343866182e-14
2.31779952321194e-07
4.84068705274377e-14
2.31779929225958e-07
4.40191689422514e-14
2.31779907877726e-07
4.07178284430733e-14
2.31779890755947e-07
3.29601245546651e-14
2.31779882773573e-07
1.59586084088747e-14
2.31779886242207e-07
-5.61418564124609e-15
2.31779901645079e-07
-2.82660244592671e-14
2.31779927438157e-07
-4.81407417505967e-14
2.31779961068457e-07
-6.32774441352405e-14
2.31779999306746e-07
-7.2333703650261e-14
2.31780038437513e-07
-7.43733907051101e-14
2.31780075127441e-07
-7.00490526812687e-14
-3.24865080198771e-14
2.70215776581234e-07
-3.70041687624998e-08
2.76119210186406e-07
-1.43993386516932e-08
2.81652678589842e-07
-1.35084951980813e-08
2.8601825267066e-07
-1.0688108594739e-08
2.90231003817982e-07
-1.03228647635984e-08
2.93622740952709e-07
-8.35516875119144e-09
2.96801636781875e-07
-7.85183911272351e-09
2.99285918892715e-07
-6.19228298998589e-09
3.01459261578325e-07
-5.44956046440225e-09
3.03009050147008e-07
-3.94451232466321e-09
3.04194317502874e-07
-3.05099716380241e-09
3.04858605747702e-07
-1.76294242852782e-09
3.0521086469193e-07
-9.68186587837187e-10
3.05242835863207e-07
-1.44354217939221e-10
3.05140171305402e-07
2.20565029458608e-10
3.04918499412629e-07
5.3504798246629e-10
3.04674760611667e-07
6.02153607953443e-10
3.04406206912477e-07
6.69535986862166e-10
3.04157633971581e-07
6.23411829766807e-10
3.03919025835617e-07
5.99613559500331e-10
3.037099330519e-07
5.26852553648271e-10
3.0351978540757e-07
4.7937912297479e-10
3.03356671055019e-07
4.11929170255032e-10
3.03211951906397e-07
3.65557068276954e-10
3.03088708681419e-07
3.11729075384302e-10
3.02980609284823e-07
2.73476004630443e-10
3.02888617604153e-07
2.32996131197601e-10
3.02808332195502e-07
2.033872325047e-10
3.02739858639331e-07
1.73639690379793e-10
3.02680211576162e-07
1.51286523896941e-10
3.02629175150286e-07
1.29557857821395e-10
3.02584739786549e-07
1.1281944035603e-10
3.02546593630728e-07
9.69191688989731e-11
3.02513379955772e-07
8.4396980104673e-11
3.0248478295484e-07
7.27056795541689e-11
3.02459878292959e-07
6.33223764589399e-11
3.02438381521169e-07
5.46800497680746e-11
3.02419655224119e-07
4.7633883646957e-11
3.02403457103799e-07
4.12152897345111e-11
3.02389341856014e-07
3.59148668397933e-11
3.02377109653247e-07
3.11300675969673e-11
3.02366445622779e-07
2.71379115136357e-11
3.02357188675808e-07
2.35603172083353e-11
3.02349113765018e-07
2.05504837171909e-11
3.0234209328157e-07
1.78684379478842e-11
3.0233596512831e-07
1.55961005778595e-11
3.02330629604775e-07
1.35794792262128e-11
3.02325969247233e-07
1.18602050133623e-11
3.02321906958125e-07
1.03384205186898e-11
3.02318357300039e-07
9.03318235412002e-12
3.02315261037088e-07
7.87952400394138e-12
3.02312555318581e-07
6.88526473009274e-12
3.02310194745777e-07
6.00707461822135e-12
3.02308132761592e-07
5.2470388539685e-12
3.02306334461266e-07
4.57617224344391e-12
3.0230476480236e-07
3.99423363131095e-12
3.02303396683915e-07
3.4814501195634e-12
3.0230220357583e-07
3.03603319245683e-12
3.02301164313146e-07
2.64457131534987e-12
3.02300258461502e-07
2.30500542309968e-12
3.02299469103886e-07
2.00849287009714e-12
3.02298780672718e-07
1.75158420467537e-12
3.02298179897745e-07
1.52845144824909e-12
3.02297654539059e-07
1.33642508838906e-12
3.02297194227378e-07
1.17078405837798e-12
3.02296790495419e-07
1.02681653791141e-12
3.02296435862248e-07
9.01911970520061e-13
3.02296123638545e-07
7.94007514688498e-13
3.0229584803343e-07
7.00838117529137e-13
3.02295604386295e-07
6.19549087707689e-13
3.02295388850975e-07
5.48084792432999e-13
3.02295197918325e-07
4.8555341289284e-13
3.02295028526082e-07
4.30778318410101e-13
3.02294878078667e-07
3.82616005015543e-13
3.0229474397908e-07
3.41013640195844e-13
3.02294624456529e-07
3.03943514304979e-13
3.02294517851309e-07
2.71111060094483e-13
3.0229442257654e-07
2.42274422946508e-13
3.02294337397126e-07
2.16606926961701e-13
3.02294260972993e-07
1.94287977635712e-13
3.02294192551358e-07
1.73950597967484e-13
3.02294131001125e-07
1.5644631168377e-13
3.02294075895709e-07
1.40073360265928e-13
3.02294026466475e-07
1.25645166790419e-13
3.02293982257272e-07
1.12377148640299e-13
3.02293942752163e-07
1.00438467659771e-13
3.02293907409854e-07
8.98297399363349e-14
3.02293876027503e-07
7.97892241748174e-14
3.02293847356461e-07
7.26902106797565e-14
3.02293820932404e-07
6.71418872692594e-14
3.02293800287221e-07
5.36053048390862e-14
3.02293791678138e-07
2.45676898289811e-14
3.0229379769572e-07
-1.16317708378817e-14
3.02293818671202e-07
-4.92414818426201e-14
3.02293852413504e-07
-8.18830656862881e-14
3.02293895536114e-07
-1.06400050280355e-13
3.02293943909339e-07
-1.20706931273948e-13
3.02293992815421e-07
-1.23279449264412e-13
3.02294038139318e-07
-1.15372972489949e-13
-5.32537557989318e-14
3.24304733549963e-07
-5.52048181565131e-08
3.31384603142508e-07
-2.14792082442105e-08
3.37948253036782e-07
-2.00721450923188e-08
3.43150909768687e-07
-1.58907653266702e-08
3.4812000526109e-07
-1.52919602560273e-08
3.5211742732009e-07
-1.2352590810207e-08
3.55819645971546e-07
-1.15540577642236e-08
3.58689618789902e-07
-9.06225580832821e-09
3.61160321371248e-07
-7.9202630457718e-09
3.62891570672408e-07
-5.67576162586661e-09
3.64183657225218e-07
-4.34308371667915e-09
3.64877957690807e-07
-2.4572428940753e-09
3.65220807608878e-07
-1.31103650583452e-09
3.65216998380948e-07
-1.40544989987637e-10
3.6507417759446e-07
3.63385815986582e-10
3.64807892954372e-07
8.01332622578458e-10
3.645222848137e-07
8.87761748605064e-10
3.64213096188229e-07
9.78724612304791e-10
3.63928443286615e-07
9.0806473139668e-10
3.63656823704066e-07
8.7123314202342e-10
3.63419234333545e-07
7.6444192412027e-10
3.63203820485523e-07
6.94792970985127e-10
3.63019203704814e-07
5.96545950939259e-10
3.6285573519941e-07
5.29025573635062e-10
3.6271662629997e-07
4.50837974839664e-10
3.62594803104152e-07
3.9529920044446e-10
3.62491204274855e-07
3.36594960533169e-10
3.62400907915495e-07
2.93683591859071e-10
3.62323946836617e-07
2.50600769245516e-10
3.62256979912855e-07
2.18253447644455e-10
3.621997137184e-07
1.86824052262173e-10
3.62149898454209e-07
1.62634704571232e-10
3.6210715423674e-07
1.39663386397458e-10
3.62069962454212e-07
1.21588762664763e-10
3.62037951788551e-07
1.04716345176756e-10
3.62010088221278e-07
9.11859437167512e-11
3.61986043356856e-07
7.8724914153935e-11
3.61965104701759e-07
6.85725387209073e-11
3.61946995615106e-07
5.93243763698729e-11
3.61931218733636e-07
5.16917483112323e-11
3.61917547540019e-07
4.48012612080565e-11
3.61905630586629e-07
3.905486492289e-11
3.61895286146979e-07
3.39047568729501e-11
3.61886263154349e-07
2.95734763354491e-11
3.61878418145659e-07
2.57134466371033e-11
3.61871570347838e-07
2.24438984221749e-11
3.6186560793014e-07
1.95418969254308e-11
3.61860399921671e-07
1.70682134817018e-11
3.61855859970565e-07
1.48783716251173e-11
3.61851892825846e-07
1.30003270738749e-11
3.61848432213367e-07
1.13401364859085e-11
3.6184540802138e-07
9.90945671453878e-12
3.6184276949314e-07
8.64560283160487e-12
3.61840464679435e-07
7.55185257526223e-12
3.61838454571716e-07
6.58627993806064e-12
3.61836700022269e-07
5.74878307878208e-12
3.61835170730955e-07
5.01074140506648e-12
3.61833837058681e-07
4.36970545634062e-12
3.61832675329466e-07
3.80630052238915e-12
3.61831662703648e-07
3.31763123144035e-12
3.61830780222861e-07
2.89097366292929e-12
3.61830010520882e-07
2.52128617818549e-12
3.6182933874206e-07
2.20023027586723e-12
3.61828751199336e-07
1.92396780504187e-12
3.61828236282998e-07
1.68570041013413e-12
3.61827784625592e-07
1.47847395402741e-12
3.61827387871575e-07
1.2986659983404e-12
3.61827038533909e-07
1.14334517588816e-12
3.61826730137969e-07
1.00923406278972e-12
3.61826457484998e-07
8.92202042831615e-13
3.61826216298539e-07
7.8927124706247e-13
3.61826002661698e-07
6.99190266641309e-13
3.61825813123802e-07
6.20316206679384e-13
3.61825644791695e-07
5.50948111401835e-13
3.61825494731689e-07
4.91073651567697e-13
3.6182536097765e-07
4.37697540337442e-13
3.61825241687579e-07
3.90401113891738e-13
3.61825135056461e-07
3.48905533229302e-13
3.61825039724292e-07
3.11939101268393e-13
3.61824954150483e-07
2.79861784677305e-13
3.61824877539965e-07
2.50561113088249e-13
3.61824808598658e-07
2.25387623114619e-13
3.61824746876736e-07
2.01795281140228e-13
3.61824691513227e-07
1.81008681037668e-13
3.61824641993497e-07
1.61896880461202e-13
3.61824597756572e-07
1.44675401857967e-13
3.61824558162317e-07
1.29423990612886e-13
3.61824523021698e-07
1.14929847108458e-13
3.61824490781853e-07
1.04930049135565e-13
3.61824461232621e-07
9.66911188094555e-14
3.61824438959928e-07
7.58779989949978e-14
3.61824431146597e-07
3.23810260362945e-14
3.61824440316636e-07
-2.08018118705455e-14
3.61824466476604e-07
-7.54013937289441e-14
3.61824506786695e-07
-1.22193212055672e-13
3.61824557142342e-07
-1.56755696563798e-13
3.61824612741917e-07
-1.76306507766368e-13
3.61824668136674e-07
-1.78674153659209e-13
3.61824718751019e-07
-1.65987373233485e-13
-7.61943007805252e-14
3.70005108953669e-07
-7.59014247434813e-08
3.78070424455453e-07
-2.95445237460127e-08
3.85455763577279e-07
-2.74574842141638e-08
3.91337170716191e-07
-2.17721724655651e-08
3.96887298569939e-07
-2.08420881097187e-08
4.01343775177248e-07
-1.68090674175312e-08
4.05411774670147e-07
-1.56220572571805e-08
4.08532141091715e-07
-1.2182622229902e-08
4.11165860821439e-07
-1.05539827755e-08
4.12971126080365e-07
-7.48102688474868e-09
4.1427777743754e-07
-5.64973507379939e-09
4.14941417081306e-07
-3.12088253782242e-09
4.15236338112575e-07
-1.60595753709461e-09
4.15183495968455e-07
-8.77028458938055e-11
4.14999024828408e-07
5.47856956012885e-10
4.14696613394759e-07
1.10374405618037e-09
4.14380489500895e-07
1.20388564250021e-09
4.14044834340117e-07
1.3143797730581e-09
4.13737729796719e-07
1.21516927480785e-09
4.1344672514294e-07
1.16223779579763e-09
4.13192761775161e-07
1.01840529188579e-09
4.12963337756277e-07
9.24216989863493e-10
4.12766957350476e-07
7.92926356811759e-10
4.1259349724022e-07
7.02485683969997e-10
4.1244602739864e-07
5.98307816378523e-10
4.12317128634121e-07
5.24197965015295e-10
4.12207609027939e-07
4.46114566677523e-10
4.12112302760925e-07
3.88989858867546e-10
4.12031137330535e-07
3.3176619965978e-10
4.11960603917294e-07
2.88786860825316e-10
4.11900330219982e-07
2.47097749561171e-10
4.11847953292408e-07
2.15011632186492e-10
4.11803036469546e-07
1.84580209249994e-10
4.11763985469394e-07
1.60639762774328e-10
4.11730388764396e-07
1.38313050182336e-10
4.11701161710175e-07
1.2041299795074e-10
4.11675947465675e-07
1.03939158684988e-10
4.11653999400377e-07
9.05206040245595e-11
4.11635020586483e-07
7.83031902400207e-11
4.11618490334094e-07
6.82220006930131e-11
4.11604167465681e-07
5.91241296205316e-11
4.11591684345764e-07
5.15379848331147e-11
4.11580848541946e-07
4.47405606689331e-11
4.11571397571486e-07
3.90244468147742e-11
4.11563180116835e-07
3.39309012896855e-11
4.11556007266884e-07
2.96167483870924e-11
4.11549761378967e-07
2.57877848884636e-11
4.11544305620131e-07
2.25239723028407e-11
4.11539549302357e-07
1.96346893773971e-11
4.11535392926039e-07
1.71567034077286e-11
4.11531766980686e-07
1.49660818394006e-11
4.11528598174039e-07
1.3078263358238e-11
4.11525833317674e-07
1.14104591977152e-11
4.11523418090539e-07
9.96707971545203e-12
4.11521311634804e-07
8.69273569628281e-12
4.1151947295556e-07
7.58746233458143e-12
4.11517870300155e-07
6.61339681104183e-12
4.11516472628981e-07
5.76737663466991e-12
4.11515255112081e-07
5.02381741762482e-12
4.11514193821531e-07
4.37892177298584e-12
4.11513268826067e-07
3.81596913991794e-12
4.11512461976409e-07
3.3281358472934e-12
4.1151175767806e-07
2.90452864342695e-12
4.11511141580574e-07
2.54006527926453e-12
4.11510601489439e-07
2.22579155879598e-12
4.11510127714241e-07
1.95224912492153e-12
4.11509711501369e-07
1.71487889986806e-12
4.11509344993262e-07
1.5098532744636e-12
4.11509021404908e-07
1.33282241784002e-12
4.11508735295425e-07
1.17831151026398e-12
4.11508482212222e-07
1.04235446469838e-12
4.1150825805973e-07
9.23342770040854e-13
4.11508059182971e-07
8.19192967388332e-13
4.11507882565305e-07
7.27565772225433e-13
4.11507725092165e-07
6.48546779033096e-13
4.11507584718223e-07
5.78071482075982e-13
4.11507459531929e-07
5.15587408245092e-13
4.11507347599646e-07
4.60837810634915e-13
4.11507247526539e-07
4.12012190436122e-13
4.11507157639797e-07
3.69748520974249e-13
4.11507077171907e-07
3.31028990613603e-13
4.11507004724304e-07
2.9783522936344e-13
4.11506939861587e-07
2.6665799545898e-13
4.11506881680395e-07
2.39189869491338e-13
4.11506829634488e-07
2.1394279041119e-13
4.11506783158486e-07
1.91151406519985e-13
4.11506741534582e-07
1.71047886853128e-13
4.1150670461648e-07
1.51847942492459e-13
4.11506670580127e-07
1.38966394649393e-13
4.11506639665897e-07
1.27605342351557e-13
4.11506617441812e-07
9.81020833239037e-14
4.11506611568679e-07
3.82541529613413e-14
4.11506624232037e-07
-3.34651703428603e-14
4.11506655002364e-07
-1.06171688527615e-13
4.11506700426208e-07
-1.67617092259093e-13
4.1150675581389e-07
-2.1214337438272e-13
4.11506815917496e-07
-2.36410119048418e-13
4.11506874809392e-07
-2.37566015533523e-13
4.11506927752755e-07
-2.18930771996584e-13
-9.9881540106863e-14
4.08223480152015e-07
-9.86498372035188e-08
4.17096980898806e-07
-3.84180244927834e-08
4.25119223155759e-07
-3.54797264710764e-08
4.31531242010231e-07
-2.81841913200246e-08
4.37503499381301e-07
-2.68143454808017e-08
4.42280563742427e-07
-2.1586131778587e-08
4.46569374571752e-07
-1.99108680864723e-08
4.49813864813926e-07
-1.54271124720564e-08
4.5248988705575e-07
-1.3230005017403e-08
4.54274314195606e-07
-9.2654540245627e-09
4.55518524569287e-07
-6.89394544742838e-09
4.56103585129043e-07
-3.70594309754552e-09
4.56323538916679e-07
-1.82591132482293e-09
4.5621472061371e-07
2.11154570734367e-11
4.55990284251506e-07
7.72293318177107e-10
4.55660444071466e-07
1.43358423620618e-09
4.55324461088184e-07
1.53986862580317e-09
4.54974810597854e-07
1.66403026344981e-09
4.5465717316829e-07
1.53280670434849e-09
4.54358480412516e-07
1.46093055161395e-09
4.54098569259939e-07
1.27831644442891e-09
4.53864728295224e-07
1.15805795456319e-09
4.53664906917315e-07
9.92747734685053e-10
4.5348889368379e-07
8.78498917435019e-10
4.53339449864021e-07
7.4775163616054e-10
4.53209105574968e-07
6.54542253982702e-10
4.53098486086482e-07
5.56734055146805e-10
4.53002391683228e-07
4.85084262038069e-10
4.52920639310145e-07
4.1351857272431e-10
4.5284969770066e-07
3.59728470320571e-10
4.52789128102126e-07
3.07667348037094e-10
4.52736553814536e-07
2.67585919737019e-10
4.5269149903854e-07
2.29634985255508e-10
4.52652361898799e-07
1.99776902540232e-10
4.52618708406967e-07
1.71966541981294e-10
4.52589450257873e-07
1.49671146991742e-10
4.52564218057702e-07
1.29171358858017e-10
4.52542263775227e-07
1.12474886532277e-10
4.52523283656473e-07
9.72833090413383e-11
4.52506756763507e-07
8.47488936516122e-11
4.52492438298003e-07
7.34425951123126e-11
4.52479960875576e-07
6.40154072268973e-11
4.52469130220637e-07
5.55712155721626e-11
4.52459684250544e-07
4.84704168848238e-11
4.52451470793961e-07
4.21443578963523e-11
4.52444301357298e-07
3.67861850796249e-11
4.52438057940835e-07
3.20312013388135e-11
4.52432604076386e-07
2.79778367685591e-11
4.52427848945647e-07
2.43898201267864e-11
4.5242369334577e-07
2.13123032681173e-11
4.52420067761202e-07
1.85916663678263e-11
4.52416899063503e-07
1.62469610920329e-11
4.52414134108937e-07
1.41754137350197e-11
4.52411718687582e-07
1.23825010987869e-11
4.52409611993351e-07
1.07994299496105e-11
4.52407773046692e-07
9.42640898060591e-12
4.52406170113999e-07
8.21632952644196e-12
4.52404772166278e-07
7.16532436778416e-12
4.52403554359429e-07
6.24162427383084e-12
4.5240249277124e-07
5.44050997037669e-12
4.52401567392206e-07
4.74134815468987e-12
4.52400760133268e-07
4.13539478465092e-12
4.52400055370838e-07
3.60929106405903e-12
4.52399438741224e-07
3.15669489688589e-12
4.52398898010844e-07
2.76652194397784e-12
4.52398423640795e-07
2.42661918100503e-12
4.52398006871682e-07
2.13164798169075e-12
4.52397639831759e-07
1.87689320634584e-12
4.52397315739042e-07
1.65691512113532e-12
4.52397029150987e-07
1.4648995659543e-12
4.52396775648709e-07
1.29585673872976e-12
4.52396551150152e-07
1.14784133308854e-12
4.52396351948114e-07
1.01839501287935e-12
4.52396175050299e-07
9.04463585559176e-13
4.52396017292414e-07
8.06304656950117e-13
4.52395876644425e-07
7.1871946243119e-13
4.52395751219359e-07
6.41012484284471e-13
4.52395639030409e-07
5.73026770889239e-13
4.52395538724258e-07
5.1231836003137e-13
4.52395448552531e-07
4.59920243246498e-13
4.5239536783514e-07
4.11746373690825e-13
4.52395295116871e-07
3.70553502550362e-13
4.52395230007231e-07
3.31767634655724e-13
4.52395171602905e-07
2.97594191345809e-13
4.52395119347689e-07
2.66198006770855e-13
4.5239507270656e-07
2.37792547479544e-13
4.5239503090217e-07
2.12852277510476e-13
4.52394993855264e-07
1.88894846522751e-13
4.52394959516309e-07
1.73305344133009e-13
4.52394928747032e-07
1.58374623725112e-13
4.52394907953288e-07
1.18895828572975e-13
4.52394904828823e-07
4.13786241623789e-14
4.52394921031615e-07
-4.96679701175559e-14
4.52394955648997e-07
-1.40789004373326e-13
4.52395004686287e-07
-2.1665445322823e-13
4.52395063015385e-07
-2.7047246991164e-13
4.52395125158259e-07