/*--------------------------------*- C++ -*----------------------------------*\
| =========                 |                                                 |
| \\      /  F ield         | OpenFOAM: The Open Source CFD Toolbox           |
|  \\    /   O peration     | Version:  2.3.0                                 |
|   \\  /    A nd           | Web:      www.OpenFOAM.org                      |
|    \\/     M anipulation  |                                                 |
\*---------------------------------------------------------------------------*/
FoamFile
{
    version     2.0;
    format      ascii;
    class       volScalarField;
    location    "25000";
    object      pMean;
}
// * * * * * * * * * * * * * * * * * * * * * * * * * * * * * * * * * * * * * //

dimensions      [0 2 -2 0 0 0 0];

internalField   nonuniform List<scalar> 
10000
(
2.16902821271744
2.08277523575008
2.09770258029224
2.04037404131497
2.04098749300801
1.99979131792266
1.99130763812009
1.95925856008023
1.94551481775488
1.91852928664377
1.90184206176857
1.87764098368444
1.85924247534823
1.83648822139644
1.81704596669357
1.79506147065087
1.77495384512904
1.75333992365373
1.73280460793564
1.71137741761939
1.69055244411379
1.66923459153798
1.64824258323692
1.62698647533986
1.60589556079458
1.58466521387741
1.56350607009307
1.5423118770131
1.52110738110389
1.49991855657814
1.47868073474349
1.45748867127682
1.43623048513149
1.41503598756054
1.39376234129201
1.37256036240704
1.35127342285577
1.33005894366641
1.30874002358406
1.28752441846272
1.26620184048038
1.24497114702468
1.2236674317813
1.20243171050721
1.18107831121812
1.15984684200001
1.13849234094646
1.11724603764388
1.09588137238837
1.07463199966148
1.05325893591563
1.03200742839621
1.01063545536439
0.989396492124706
0.968034911124046
0.946793879150083
0.925434338670368
0.904193139865364
0.882813449811093
0.861576487729815
0.840228988806507
0.818982716630065
0.79761575389196
0.77634915747688
0.754971401168859
0.733719299662755
0.71233866269392
0.69107880918944
0.669702650359497
0.648455316279439
0.627062011341402
0.605850335343539
0.584522611070063
0.56333836578999
0.542022708367191
0.520836593724001
0.499520334180386
0.478341081310483
0.457023487300671
0.435845188164821
0.414541787462272
0.393358616540251
0.372036096066406
0.350854917380976
0.329543399528947
0.308359815203697
0.287052325819359
0.265858950384101
0.244551190623322
0.223352512701672
0.202072304110321
0.180859438968262
0.1595490753678
0.138316121087674
0.117006314855315
0.0957853888487306
0.0744626883001207
0.0532781864490342
0.0318661416764324
0.0107900761808731
2.16897737398327
2.08275289502209
2.0976842115339
2.04036041944275
2.04097506096135
1.99978186533998
1.99129922713691
1.95925220174776
1.945509415433
1.91852537711306
1.90183902365815
1.87763908005476
1.85924131496502
1.83648784737746
1.81704601200814
1.79506187590481
1.774954378287
1.75334056228574
1.73280524114166
1.71137803827076
1.69055300815579
1.66923511745606
1.64824305110087
1.6269868880432
1.60589592790924
1.58466553348534
1.56350635474558
1.54231212312841
1.52110760162969
1.49991874073402
1.47868090247448
1.45748880222111
1.43623061466387
1.41503608098271
1.39376243199777
1.37256043418814
1.3512734881122
1.33005899066676
1.30874006285122
1.28752444883891
1.26620186412203
1.24497116157935
1.22366743898092
1.20243171062981
1.18107831184787
1.15984683844591
1.13849234460935
1.11724603365815
1.09588138747437
1.07463200255914
1.05325895333648
1.03200744248348
1.01063548166561
0.989396510815525
0.968034938650691
0.946793901710708
0.925434364540692
0.904193154135975
0.882813465503158
0.861576499730538
0.840228999185028
0.818982713504049
0.797615759342103
0.776349152040423
0.754971402622912
0.733719287282359
0.712338659760914
0.691078805910448
0.669702651220473
0.64845531472316
0.627062022328446
0.605850361722459
0.584522669671209
0.563338409836521
0.542022735649383
0.520836600435742
0.499520345961543
0.478341072776606
0.457023489795596
0.435845180792587
0.414541782102202
0.393358602686634
0.372036085016143
0.35085490049889
0.329543386937383
0.308359796802375
0.287052309307746
0.26585893273437
0.24455117416738
0.223352496249005
0.20207228671922
0.180859421305837
0.159549059022254
0.138316107463245
0.117006303072343
0.0957853802358186
0.0744626849026411
0.0532781803545535
0.0318661454839165
0.0107900647880689
2.16897260122448
2.08274451028683
2.09768019879278
2.04035748045807
2.04097259398115
1.99977997238964
1.99129768144415
1.95925097362328
1.94550845898935
1.91852461140482
1.90183847132375
1.87763863696933
1.85924102037636
1.83648764546846
1.81704592773892
1.7950618557812
1.77495440883134
1.7533406209126
1.73280532358681
1.71137811612953
1.69055308233682
1.66923519092656
1.64824311923468
1.62698694450837
1.605895987573
1.58466557586965
1.56350639771991
1.54231215408094
1.52110763745938
1.49991876221662
1.47868093158872
1.45748881133145
1.43623064215827
1.41503608639831
1.39376244689947
1.37256044292874
1.35127349669129
1.33005899649608
1.30874006490699
1.28752445648503
1.26620186467382
1.24497116376797
1.22366743833294
1.2024317106864
1.18107830741343
1.15984683657438
1.1384923412945
1.11724602361889
1.09588139530108
1.07463199646438
1.05325895758538
1.03200744002181
1.01063548763203
0.989396509722452
0.968034944004099
0.946793906632619
0.92543437100277
0.904193153680634
0.882813465040825
0.861576505562605
0.840229001725725
0.818982710338856
0.797615765258584
0.776349147274578
0.754971403889
0.73371927851794
0.712338655485511
0.69107880780655
0.669702652617155
0.648455312884437
0.627062020157192
0.605850367927621
0.584522683259494
0.563338419062464
0.542022744513004
0.520836600676052
0.499520350858569
0.478341064358651
0.457023492596091
0.435845178573384
0.414541779807488
0.393358598194707
0.372036080207579
0.3508548970316
0.329543387353599
0.308359794730624
0.287052304954441
0.265858930570518
0.244551164937739
0.223352494048069
0.202072280901882
0.180859421135712
0.159549053706849
0.138316105941337
0.117006297963972
0.0957853807777042
0.0744626798509248
0.0532781839419336
0.0318661429432432
0.0107900616883363
2.16898311906966
2.08273843783613
2.09768058828304
2.04035722988315
2.04097318723315
1.99978002935729
1.99129821839112
1.95925107912301
1.94550882710244
1.91852465090659
1.90183862509707
1.87763852376448
1.85924094479637
1.83648742959656
1.81704578018792
1.79506167535695
1.77495428441492
1.75334050548677
1.73280523878909
1.71137802669067
1.69055301156298
1.66923513162635
1.64824307033448
1.6269868994266
1.60589595309634
1.5846655401586
1.56350636843025
1.54231212398853
1.52110761799529
1.49991874007551
1.47868091687012
1.4574887936164
1.43623063255581
1.41503607456557
1.39376243695141
1.37256043661625
1.3512734853668
1.33005899125825
1.30874005296991
1.28752445707986
1.2662018584586
1.24497116129481
1.22366743755758
1.20243171234796
1.18107829898796
1.15984683705582
1.13849233417995
1.1172460200851
1.09588139256397
1.07463199327987
1.05325895462226
1.03200743800998
1.01063548528802
0.989396508440448
0.968034941064642
0.946793910233634
0.92543437030877
0.904193150812675
0.882813457353705
0.861576511722522
0.84022900198331
0.818982709781148
0.797615770724073
0.776349144922887
0.754971396265504
0.733719272226589
0.712338650409789
0.691078810779011
0.669702649550788
0.648455311628527
0.627062013373008
0.605850368773888
0.584522681533504
0.563338422912143
0.542022747152442
0.520836603964418
0.499520350504514
0.478341065128566
0.457023491536953
0.435845181312978
0.414541776655608
0.393358597883846
0.372036073552658
0.350854899368816
0.329543388465565
0.308359799305099
0.287052307495067
0.265858933822303
0.24455116478069
0.223352493206753
0.202072276638781
0.180859428627091
0.159549056837305
0.138316106714268
0.117006295874136
0.0957853848908294
0.0744626720756584
0.0532781878327862
0.0318661401609126
0.0107900566411452
2.1689964248418
2.08273063512137
2.09768118394978
2.04035682781699
2.04097398555802
1.99978002035729
1.99129889655533
1.95925114042716
1.94550926698899
1.91852464076536
1.90183878211857
1.87763833256909
1.85924082698346
1.83648713894836
1.81704559479351
1.79506145073369
1.77495414137929
1.75334036214451
1.73280514026671
1.71137791489095
1.69055293285459
1.66923506155785
1.64824301646522
1.62698684779995
1.60589591049148
1.58466549942133
1.56350633352605
1.54231209131999
1.52110759375898
1.49991871558574
1.4786808987974
1.45748877492825
1.43623061964909
1.41503606403389
1.39376242503195
1.37256043040393
1.35127347312489
1.33005898129975
1.30874003996721
1.28752445713076
1.26620185544588
1.24497115858542
1.22366743664918
1.20243171220327
1.1810782896523
1.15984683649069
1.13849232878709
1.11724601747401
1.09588138690652
1.07463199521783
1.05325894848277
1.03200743676909
1.01063548200085
0.98939650825008
0.968034937475388
0.946793915185477
0.925434369084858
0.90419314523605
0.882813452621452
0.861576518895385
0.84022900240832
0.818982708594666
0.797615775703993
0.776349142480839
0.754971387850785
0.733719270427264
0.712338646334472
0.691078813005495
0.669702643300955
0.648455312063495
0.627062005860317
0.605850366933015
0.584522681790152
0.563338426818022
0.542022752752492
0.520836606812846
0.49952035023549
0.478341069453636
0.457023490080544
0.435845185222838
0.4145417743394
0.393358594003073
0.372036068494275
0.35085490328881
0.329543390735722
0.308359805143788
0.287052311905919
0.265858937823106
0.244551164565653
0.223352490999104
0.202072270884071
0.180859433669341
0.159549064243541
0.13831610432322
0.117006294825973
0.0957853880597089
0.07446266490596
0.0532781897118325
0.0318661361023997
0.0107900561085507
2.16901118639091
2.08272123860604
2.09768160449202
2.04035619824583
2.04097472121046
1.99977987776527
1.99129953619248
1.95925109396181
1.94550965457294
1.9185245320808
1.90183886921687
1.87763804386821
1.85924063990013
1.83648678230776
1.81704537725261
1.79506120044308
1.77495399322206
1.7533402044691
1.73280504208619
1.71137779869202
1.69055285263882
1.66923499012843
1.6482429633367
1.62698679683752
1.60589586418673
1.58466545800198
1.56350629663965
1.54231205974461
1.52110756710215
1.49991869177664
1.47868087922893
1.45748875629724
1.43623060500135
1.41503605423425
1.39376241077675
1.37256042556505
1.35127346188901
1.33005897212118
1.30874002509071
1.28752445167569
1.26620185363166
1.24497115893888
1.22366743334575
1.20243171382579
1.18107827523749
1.15984683511664
1.1384923219212
1.11724601437499
1.09588137992493
1.07463200026102
1.05325893920638
1.03200743544699
1.01063547653774
0.989396508917856
0.968034931347592
0.946793921035256
0.925434367744329
0.904193140176112
0.882813449766015
0.861576527722573
0.840229001413217
0.81898270821603
0.797615775909145
0.776349141920535
0.754971379231817
0.733719271270438
0.712338643142508
0.69107881810116
0.669702636739911
0.648455311242114
0.627061993920394
0.60585036254173
0.584522681517653
0.563338431776183
0.542022758318972
0.520836610590628
0.49952034767877
0.478341074832308
0.457023486373825
0.435845190355512
0.414541772305627
0.393358591380123
0.372036063003286
0.350854909387693
0.329543390565851
0.308359810212654
0.287052313493726
0.265858944276795
0.244551163563011
0.223352492814943
0.20207226610856
0.18085943497452
0.159549069476941
0.138316106943084
0.117006288470549
0.0957853909003132
0.0744626599390626
0.0532781900963535
0.0318661305519482
0.0107900529071768
2.16902758801547
2.08271077368109
2.09768202125205
2.04035552736972
2.0409754692461
1.99977972478735
1.99130019131514
1.95925101111512
1.94551001297844
1.91852436663446
1.90183889747185
1.87763768466564
1.8592403898828
1.83648637672878
1.81704513135735
1.79506092984114
1.77495382973583
1.75334003753863
1.73280493910742
1.71137768041275
1.69055276111238
1.66923491164612
1.64824290338893
1.62698674488784
1.6058958128314
1.58466541606019
1.56350625539703
1.54231202708895
1.52110753767748
1.49991866909787
1.47868085674357
1.45748873961766
1.43623058662185
1.4150360461702
1.39376239245252
1.37256042258337
1.3512734501845
1.33005896848804
1.30874000599613
1.28752443810291
1.26620184913154
1.24497116167452
1.2236674282905
1.20243172069658
1.18107825501893
1.1598468337875
1.13849230941228
1.11724601348459
1.09588137241971
1.07463200536023
1.05325892942186
1.03200743610621
1.01063546949717
0.989396512907762
0.968034922147162
0.946793926479104
0.925434368132181
0.904193140376311
0.882813443510286
0.861576538693774
0.840228999877256
0.818982710707703
0.797615772601786
0.776349143247592
0.754971369243582
0.733719270807089
0.712338639308077
0.691078826554992
0.669702631450197
0.648455305131174
0.627061976697356
0.605850357443761
0.584522674282041
0.563338439502156
0.542022761899051
0.520836620162842
0.49952034298912
0.47834108337748
0.457023478062556
0.435845199353886
0.414541768556328
0.393358594029892
0.372036052913101
0.350854916322416
0.329543385044395
0.308359818186727
0.287052310818219
0.265858954346559
0.244551159102392
0.223352500077685
0.202072262155708
0.18085943351652
0.159549071897459
0.138316116398755
0.1170062788104
0.0957853957920528
0.0744626524532461
0.0532781973269361
0.0318661206634687
0.0107900563347912
2.16904553351256
2.08269954125326
2.09768245216267
2.04035487058429
2.0409762470691
1.99977958845239
1.99130086624749
1.95925090748516
1.94551033685263
1.91852415395857
1.90183887042615
1.87763726702643
1.85924007846773
1.83648593440395
1.81704486258031
1.79506064659205
1.77495365223439
1.75333986570141
1.73280483151024
1.71137755900213
1.69055265935087
1.66923483172657
1.64824283901339
1.62698669085378
1.60589575933038
1.58466537398495
1.56350621169286
1.54231199309913
1.52110750583517
1.49991864608522
1.47868083294046
1.45748872346119
1.43623056672795
1.41503603824699
1.39376236918421
1.3725604229912
1.35127343739062
1.3300589683126
1.30873998284904
1.28752442952908
1.2662018424186
1.2449711671931
1.22366741962469
1.20243173194904
1.18107823197049
1.15984683345928
1.13849228917627
1.11724601385686
1.09588136344966
1.07463201153099
1.0532589197622
1.03200743654103
1.01063546226715
0.989396518551283
0.968034910119688
0.946793931657514
0.925434370523492
0.904193143441668
0.882813432160768
0.861576551241136
0.840228998873538
0.818982715485541
0.797615767056174
0.776349144531079
0.754971357771123
0.733719271475883
0.712338631719486
0.691078836584377
0.669702629007596
0.648455295014705
0.62706195764085
0.605850356841217
0.584522665045295
0.563338445657501
0.542022764627062
0.520836631326129
0.499520338788686
0.478341092161721
0.457023464330763
0.435845213599193
0.414541763032871
0.393358598986307
0.372036038448011
0.350854923784944
0.329543378369715
0.308359831028838
0.287052302432019
0.265858968371911
0.244551150132163
0.223352511087543
0.20207225927297
0.180859430704001
0.159549070342151
0.138316129203972
0.117006266943664
0.0957854006574019
0.0744626424949819
0.0532782037218158
0.0318661104342381
0.0107900549162168
2.16906475311891
2.08268771906643
2.09768285191514
2.04035424386868
2.04097705269672
1.99977946245899
1.9913015364941
1.95925077633867
1.94551060888547
1.91852388540901
1.90183878323815
1.87763678728036
1.85923970963004
1.83648546390496
1.81704457699732
1.79506035335605
1.77495346086323
1.75333969012023
1.73280472222523
1.71137743641273
1.69055255069044
1.66923475457651
1.64824277100878
1.62698663619222
1.60589570393889
1.58466532957623
1.56350616747077
1.54231196127981
1.52110747172626
1.49991862082948
1.47868080864876
1.45748870446753
1.43623054585593
1.41503602809401
1.39376234363281
1.37256042798154
1.35127342397236
1.33005896936045
1.30873995797732
1.2875244307939
1.26620183458058
1.2449711758348
1.22366740964666
1.20243174581393
1.18107820774829
1.15984683337172
1.13849226724629
1.11724601643054
1.09588134722653
1.0746320191479
1.05325890609005
1.03200743719298
1.01063545305033
0.989396521301879
0.968034895168413
0.946793944140552
0.925434373458054
0.904193147240827
0.882813417039584
0.861576564369728
0.840228997818457
0.818982717938386
0.797615759193753
0.776349147651118
0.754971345316638
0.733719273406592
0.712338614097056
0.69107884423973
0.669702629650672
0.64845528237147
0.627061940342124
0.605850359467802
0.584522654414434
0.563338452941116
0.542022762063587
0.520836639289038
0.49952033250007
0.478341098254136
0.457023450610762
0.435845228294499
0.414541758242762
0.393358604722192
0.372036021924798
0.350854932626789
0.329543371997296
0.308359845354029
0.287052291322405
0.265858987227812
0.244551142382475
0.223352522857119
0.202072258662831
0.180859428735207
0.159549065529465
0.1383161387689
0.117006255077307
0.0957854040845276
0.0744626320291864
0.0532782093454599
0.0318660989764043
0.010790057599409
2.16908501409834
2.08267544158843
2.09768320660975
2.04035367183982
2.04097787590771
1.99977933877262
1.99130218131523
1.9592506078065
1.94551081691904
1.91852355467186
1.90183863064582
1.87763624600615
1.85923929129622
1.83648497119801
1.8170442793273
1.79506005667584
1.77495326259589
1.75333951444584
1.73280461136958
1.71137731540823
1.69055244053095
1.66923468283977
1.64824269832661
1.62698658416006
1.60589564598752
1.58466528268919
1.56350612323233
1.54231193506655
1.52110743843712
1.49991859701742
1.47868078452948
1.45748868640186
1.436230523275
1.41503602076234
1.3937623219116
1.37256043323089
1.35127341091438
1.33005897012802
1.30873993392879
1.28752443678394
1.26620182473679
1.24497118565623
1.22366740365812
1.20243175930784
1.1810781823689
1.15984683235257
1.13849225040438
1.11724602048478
1.09588133067566
1.07463202655888
1.0532588919231
1.03200744063004
1.01063543969328
0.989396526116073
0.968034881403802
0.946793959470858
0.925434375354765
0.904193151681101
0.882813398373027
0.861576578490902
0.840228996604799
0.81898271991113
0.797615751082174
0.776349155971804
0.754971332147418
0.733719278487844
0.712338598810738
0.691078849162506
0.669702628762357
0.648455270703277
0.62706192478355
0.605850366438534
0.584522641118203
0.563338465543775
0.542022750242187
0.520836646969625
0.499520318899287
0.478341105929886
0.457023441261113
0.43584523510387
0.414541756158953
0.393358611375834
0.372036004297663
0.350854944627993
0.32954336391362
0.308359861543995
0.287052282331421
0.265859006408748
0.244551136519946
0.223352532126234
0.202072259127208
0.180859429617416
0.159549060116244
0.13831614949738
0.117006241513571
0.0957854055615602
0.0744626224859638
0.0532782140949287
0.03186608972472
0.0107900563275245
2.16910611813091
2.08266283965617
2.09768356049211
2.04035316740352
2.04097869607351
1.99977921656552
1.99130278526471
1.95925039213694
1.94551095141635
1.91852316174775
1.90183840932156
1.87763565139228
1.85923883497803
1.83648446677988
1.81704397296246
1.79505976438705
1.77495306476673
1.75333934071132
1.73280449855072
1.71137719881817
1.69055233107339
1.66923461450263
1.64824262340141
1.62698653558169
1.6058955897263
1.58466524233171
1.56350607952876
1.5423119101335
1.5211074073987
1.49991857514731
1.47868076100584
1.45748867322868
1.4362305002679
1.41503601789271
1.39376230315189
1.37256043453794
1.35127339937124
1.33005897178912
1.30873990883398
1.2875244414535
1.26620181062883
1.24497119598427
1.22366739952382
1.20243176954789
1.18107815541038
1.15984683169902
1.13849223513894
1.11724602465454
1.09588131894128
1.0746320337768
1.05325888097519
1.0320074442196
1.01063542482861
0.989396536155821
0.968034870620004
0.94679397202534
0.925434375257115
0.904193158831156
0.882813377229766
0.861576593481899
0.840228995361429
0.818982723661367
0.797615743431759
0.776349168355726
0.75497131805305
0.733719285390138
0.712338591547223
0.691078851358271
0.669702623201469
0.648455263250442
0.627061904981429
0.605850378740386
0.584522625134462
0.563338484048663
0.542022734003004
0.520836655410934
0.499520301743885
0.478341116767041
0.45702343292699
0.435845237242444
0.414541755009008
0.393358619507313
0.372035987781346
0.350854957902347
0.329543354399471
0.308359879485377
0.287052273616183
0.265859021048437
0.244551129876633
0.223352543810377
0.202072259801008
0.180859429212754
0.159549053886731
0.138316162123797
0.117006227360677
0.0957854064140956
0.0744626130706472
0.0532782207127141
0.0318660786996746
0.0107900609535529
2.1691279058814
2.0826499998424
2.09768394889289
2.04035272257336
2.04097949775806
1.99977909262973
1.99130332680092
1.95925012313736
1.94551100450132
1.91852271025432
1.90183811872997
1.87763501422778
1.85923834979708
1.83648396471733
1.81704366187875
1.79505947651254
1.77495287108318
1.75333916905312
1.73280438619471
1.71137709091052
1.69055222314308
1.66923454921565
1.64824255118678
1.62698649070314
1.60589553804021
1.58466520805103
1.56350603769302
1.54231188246138
1.52110737852914
1.49991855242577
1.47868073888273
1.4574886623103
1.43623047835302
1.4150360159914
1.39376228664168
1.37256043324412
1.35127338876987
1.33005897543572
1.30873988138817
1.28752444857124
1.26620179582904
1.24497120916262
1.2236673938605
1.20243178023663
1.18107812707183
1.15984683366883
1.13849222071399
1.11724602822412
1.09588130854208
1.0746320403414
1.05325887143361
1.03200744796693
1.01063541080028
0.989396547261087
0.968034859160627
0.946793981404974
0.925434371712131
0.904193169240888
0.882813356169558
0.861576608669371
0.84022899421015
0.818982728659898
0.797615735018904
0.776349182682695
0.754971303385677
0.733719291791072
0.712338587540333
0.691078851449263
0.669702614868876
0.64845526167943
0.627061878873972
0.605850396366206
0.584522609110468
0.56333850647924
0.542022719395504
0.520836660873562
0.499520287995954
0.478341128489337
0.457023422432669
0.435845247596998
0.414541753012384
0.39335862789128
0.37203597245451
0.350854970869827
0.329543345457579
0.308359894425767
0.287052261180685
0.265859034008014
0.244551117867323
0.22335255912674
0.202072260034974
0.180859424288653
0.159549047436135
0.138316179664316
0.117006211256557
0.0957854090197504
0.0744626030022685
0.0532782255256513
0.0318660689740868
0.0107900615465204
2.16915023158807
2.08263706408193
2.09768435767581
2.04035232741841
2.04098027052753
1.99977895309251
1.99130378968181
1.95924979836655
1.94551097457523
1.91852220363319
1.90183776375135
1.87763434369705
1.85923784169106
1.83648347037708
1.81704335025181
1.79505919231494
1.7749526820991
1.75333900187234
1.73280427541697
1.71137699264687
1.69055211997651
1.66923448761213
1.64824248123304
1.62698644859356
1.60589548814829
1.58466517689514
1.56350599739528
1.54231185865083
1.52110735070365
1.4999185311619
1.4786807180292
1.45748865317805
1.43623045795534
1.41503601482686
1.39376226990082
1.37256043542602
1.35127337716854
1.33005898179569
1.30873985348833
1.28752445799244
1.26620178361467
1.24497122283699
1.22366738447876
1.20243179511002
1.18107809476427
1.15984683900674
1.13849220641685
1.11724603129943
1.09588129822415
1.07463204544841
1.05325886254233
1.03200745246229
1.01063539774495
0.989396558546922
0.968034843638953
0.946793992233256
0.925434365095716
0.904193181966406
0.882813333664552
0.861576624255642
0.840228992674865
0.818982737491228
0.797615725136138
0.776349197587755
0.754971288311521
0.733719298535935
0.712338584811007
0.691078851653995
0.669702605146813
0.648455267276428
0.627061850642947
0.605850416597982
0.584522594041954
0.563338526451162
0.542022704624014
0.520836663992061
0.499520273156999
0.478341138426735
0.457023408285409
0.435845264637141
0.414541750346106
0.393358636597582
0.37203595546133
0.350854986454327
0.329543336703449
0.308359904876059
0.287052242698938
0.265859050556722
0.24455110574127
0.223352573384061
0.202072260083453
0.180859417791463
0.159549041253416
0.138316199949693
0.117006195925053
0.0957854130407221
0.0744625926464748
0.0532782304924303
0.0318660597816339
0.010790066694241
2.16917296136104
2.08262414253644
2.09768477423294
2.04035197681373
2.04098100027917
1.99977879169292
1.99130416670796
1.95924941565951
1.94551086417101
1.91852164606416
1.90183735157724
1.87763364741408
1.85923732033548
1.83648298731955
1.81704304247015
1.79505891719381
1.77495249817303
1.75333884157881
1.7328041654668
1.7113769006054
1.69055202160497
1.66923443006219
1.64824241447944
1.62698640991762
1.60589543537871
1.58466514871003
1.56350595554279
1.54231184279617
1.52110732179759
1.499918519101
1.47868069648501
1.45748864508885
1.43623043822305
1.4150360152217
1.39376224715652
1.37256044219979
1.35127336396961
1.33005899180194
1.30873982813332
1.28752446920804
1.26620177179446
1.24497123578453
1.22366737328196
1.20243181203206
1.18107806270626
1.15984684469504
1.13849218970181
1.11724603578694
1.09588128729096
1.07463204937659
1.05325885196695
1.03200745757096
1.0106353846934
0.989396567941001
0.96803482976313
0.946794004192116
0.925434359301435
0.904193194813579
0.882813307734844
0.861576640652345
0.840228990329646
0.818982749554549
0.79761571534173
0.776349212065637
0.75497127371353
0.733719305704288
0.712338582527788
0.691078851865389
0.669702594839976
0.6484552776023
0.627061823872638
0.605850437908815
0.584522579048772
0.563338542951634
0.542022688375535
0.520836668720656
0.49952025288377
0.478341147208869
0.457023399100196
0.435845279936916
0.414541746878267
0.393358646580317
0.372035935859233
0.350855004593054
0.329543327208713
0.308359929158613
0.287052226586199
0.265859066847906
0.24455109859937
0.223352583675773
0.202072260137186
0.180859412077255
0.159549035359782
0.138316218803386
0.117006181361852
0.0957854172240892
0.0744625824731647
0.0532782334796574
0.0318660521621223
0.0107900671103723
2.16919598236989
2.08261127986669
2.09768518650699
2.0403516642582
2.04098166971224
1.99977860388355
1.99130445423153
1.95924897386423
1.94551067374499
1.91852104201463
1.9018368882275
1.8776329346319
1.85923679833895
1.83648251878986
1.81704274100437
1.79505865692878
1.77495232189524
1.75333868993959
1.73280406283212
1.71137681303627
1.69055192397429
1.66923437755383
1.64824235386073
1.62698637545729
1.60589538649179
1.58466512356784
1.56350591690729
1.54231183094802
1.52110729433589
1.4999185128048
1.4786806729464
1.45748863962997
1.43623041592845
1.41503601673759
1.39376222614766
1.37256045055884
1.35127335113507
1.33005900323307
1.30873980507457
1.28752448123188
1.26620175878965
1.24497124869477
1.22366736459881
1.20243182961023
1.1810780339007
1.15984684902329
1.13849217150416
1.11724604448284
1.09588127366699
1.07463205673894
1.05325883223962
1.0320074647626
1.01063536555471
0.989396578346624
0.968034822030379
0.946794014808417
0.925434354798777
0.904193208143248
0.882813280595346
0.86157665768794
0.840228987828292
0.818982759301669
0.797615706387823
0.776349226156643
0.754971260825697
0.733719313142944
0.712338579184652
0.691078852931433
0.669702584349148
0.648455288881402
0.627061796957349
0.605850458862159
0.584522563458699
0.56333855736736
0.542022672914979
0.520836674747385
0.499520231765731
0.478341157127302
0.457023397157594
0.435845290176232
0.414541743856378
0.393358658210309
0.37203591568906
0.350855022683934
0.329543318290355
0.308359955775287
0.28705221590704
0.265859079787046
0.244551092207642
0.223352592264091
0.202072261074672
0.180859408637395
0.15954902932888
0.138316232388309
0.117006168080609
0.0957854186556791
0.0744625732148425
0.0532782403809298
0.0318660430796845
0.0107900709998225
2.16921918145242
2.08259853857629
2.09768559158321
2.040351373989
2.04098227221576
1.99977837386643
1.99130465375088
1.95924847329362
1.94551040632465
1.9185203966403
1.90183638146321
1.8776322153627
1.85923628239724
1.83648206572793
1.81704244825147
1.79505840874481
1.77495215465554
1.75333854803653
1.7328039678784
1.71137673272831
1.69055183215046
1.66923433204621
1.64824230020326
1.62698634528198
1.60589534777192
1.58466510057987
1.56350588802622
1.54231181976776
1.52110727307844
1.49991850767337
1.47868065213014
1.45748863663368
1.43623039580304
1.41503601964382
1.39376221475585
1.37256045777188
1.35127334062099
1.33005901430013
1.30873978332155
1.28752449307696
1.26620174446031
1.24497126173107
1.22366735923628
1.20243184654123
1.18107800716505
1.15984685381576
1.13849215648023
1.11724605512391
1.09588125979316
1.07463206698873
1.0532588134033
1.03200747477928
1.01063534759946
0.98939659163856
0.968034815018338
0.946794023325622
0.925434350853644
0.904193222527248
0.882813255136492
0.861576674777267
0.840228986486459
0.818982766872729
0.797615698817007
0.776349239639308
0.754971249004423
0.73371931964469
0.712338573960487
0.691078855036397
0.669702575223176
0.648455301257151
0.627061766027154
0.605850476965967
0.584522546515301
0.563338570261261
0.542022659419805
0.520836683484666
0.499520217147085
0.478341166581732
0.457023396754477
0.435845298239219
0.414541741255703
0.393358672197621
0.372035895739212
0.350855040142603
0.329543310756565
0.308359967480339
0.28705220770483
0.265859091105651
0.244551085506113
0.223352599315313
0.202072263564222
0.180859407902398
0.159549022305853
0.13831624424322
0.117006152872522
0.0957854169127791
0.0744625650561083
0.0532782475991261
0.0318660350402872
0.0107900701836458
2.16924248370188
2.0825859740305
2.09768598052395
2.0403510905695
2.04098281456798
1.99977808829793
1.99130476236169
1.95924791538113
1.94551006807042
1.91851971746045
1.90183584046679
1.87763149951813
1.85923577639617
1.83648162978609
1.81704216697805
1.79505817101819
1.77495199639098
1.75333841664822
1.73280387613668
1.71137666224114
1.69055174991727
1.66923429495346
1.6482422527044
1.62698631930496
1.60589531513688
1.58466508557144
1.56350586343112
1.54231180874866
1.52110725607479
1.49991850350299
1.47868063572675
1.45748863347487
1.43623038176208
1.41503602304363
1.39376220525041
1.37256046544472
1.35127333199755
1.33005902550172
1.30873976205374
1.28752450488627
1.26620172965682
1.24497127463085
1.22366735563222
1.20243186260811
1.18107798057838
1.15984686002435
1.13849214197314
1.11724606652885
1.09588124783676
1.07463207670147
1.05325880142153
1.03200748411494
1.01063533649459
0.989396601615034
0.968034807087121
0.946794031306502
0.925434346486204
0.904193237723185
0.882813231014083
0.861576691950686
0.840228985917195
0.818982773431617
0.797615692850754
0.776349252210351
0.754971236831639
0.733719326626307
0.712338567603807
0.69107885775872
0.669702568151382
0.648455317242919
0.627061730199154
0.60585049241536
0.584522527538939
0.563338582446174