/*--------------------------------*- C++ -*----------------------------------*\
| =========                 |                                                 |
| \\      /  F ield         | OpenFOAM: The Open Source CFD Toolbox           |
|  \\    /   O peration     | Version:  2.3.0                                 |
|   \\  /    A nd           | Web:      www.OpenFOAM.org                      |
|    \\/     M anipulation  |                                                 |
\*---------------------------------------------------------------------------*/
FoamFile
{
    version     2.0;
    format      ascii;
    class       volScalarField;
    location    "25000";
    object      pPrime2Mean;
}
// * * * * * * * * * * * * * * * * * * * * * * * * * * * * * * * * * * * * * //

dimensions      [0 4 -4 0 0 0 0];

internalField   nonuniform List<scalar> 
10000
(
0.481416109072463
0.474651071808879
0.464740498923933
0.459301482126858
0.447851838617265
0.442023162835297
0.432071278634042
0.426268105215642
0.418080312848937
0.411912643304618
0.402749971559194
0.396419906095028
0.386044294597855
0.380833517373884
0.373284382622921
0.366002699607526
0.354903418513486
0.349263349981327
0.339727648222303
0.332638561125497
0.322390615669442
0.313598886453749
0.301335660790885
0.293848383201727
0.282804203626198
0.276216502720639
0.267076786309891
0.260952779103797
0.25351950438839
0.2483486755054
0.242648632043484
0.237936464874655
0.232739644978029
0.228716878414937
0.223859316367007
0.220506182139017
0.216079463984258
0.212151646087835
0.207624012472453
0.202883106199776
0.196782072403153
0.192776438568559
0.187779481278928
0.183424410764683
0.178967008772696
0.174449826651448
0.16949095248773
0.166303191312295
0.161227845738922
0.158202176199299
0.152423989376058
0.149849908570755
0.14394223792628
0.141326228715928
0.135199283154994
0.132739995918131
0.127293095394521
0.124478790347044
0.119361670386646
0.116265528985758
0.111511216252283
0.108683471020355
0.103125839405736
0.100552478823825
0.096007452690432
0.0925428680728609
0.0863921942488334
0.083326497459073
0.0771867404398984
0.0730540700108784
0.0653474679985793
0.0596288605150289
0.0499978324535539
0.0457927314782506
0.0366418164469946
0.0336096482574711
0.0260669914223014
0.0237450053153896
0.0183180606765551
0.0166206955227405
0.012868547712426
0.0115004488676325
0.00913986058730515
0.00798547317064291
0.00612967852474872
0.00539967392927825
0.0042421130445752
0.00378712340850403
0.00311580222583709
0.0028283854702686
0.0024839593663196
0.00223451810654762
0.00183052854566147
0.0014765508428185
0.00110966466498823
0.000773650064595203
0.000456010270251608
0.000241751782199561
9.38005670713315e-05
1.1963939287632e-05
0.481415922102597
0.47465117996914
0.464739700330125
0.459300799243358
0.447851429764778
0.442023117436781
0.432071197534983
0.426267969468157
0.418079993711915
0.411912221859563
0.402750028711775
0.396419941087237
0.386044128754857
0.380833500945102
0.373284446563084
0.36600282402127
0.354903282816052
0.349263127249615
0.339727729291216
0.332638824672154
0.322390601998234
0.313598759832221
0.301335390728325
0.293848124049427
0.282804247108581
0.276216537330383
0.267076819134011
0.260952820390005
0.25351947565676
0.248348735715496
0.242648654412345
0.237936427838099
0.232739711802334
0.228716895062341
0.223859349106482
0.220506295166829
0.216079597207822
0.212151862537284
0.20762393959607
0.202883101176143
0.196781963768724
0.192776463149825
0.187779399539902
0.183424491411099
0.178966947958193
0.174449855168605
0.169490920122514
0.166303161293525
0.161227930885257
0.158202169040681
0.152424026467294
0.149849890874496
0.143942286181432
0.141326178980217
0.135199319787552
0.132739990298548
0.127293151020818
0.12447889851475
0.11936158142596
0.11626550523897
0.111511242245435
0.10868343595872
0.103125868282739
0.100552526756735
0.0960075467733843
0.0925429393621735
0.0863921622920018
0.0833265684233991
0.0771867929776607
0.0730541761783219
0.0653475823028136
0.0596287166717659
0.049997900397498
0.0457925558745483
0.0366418816458484
0.0336095030018242
0.0260670271687833
0.0237448853239267
0.0183181029439255
0.0166206443297811
0.0128685670801197
0.0115004479904272
0.00913986259082111
0.00798544164504654
0.00612966257605166
0.00539965546993407
0.00424208796159914
0.00378711132878054
0.00311577752460789
0.00282837655320277
0.00248396497779883
0.00223453881630405
0.00183053259049477
0.00147656958201096
0.00110966177160106
0.000773657439104129
0.000456012199764078
0.000241756090083121
9.37987610982634e-05
1.19641601062583e-05
0.481416675543337
0.474651256886659
0.464739071481148
0.459300415584742
0.447851086296772
0.442023776898097
0.432071606712712
0.426268280280844
0.418079463793513
0.411911833016784
0.402750076080875
0.396420374379592
0.386043654221393
0.380833526118618
0.373284501183939
0.36600318670987
0.354902659102413
0.349262925988721
0.339727805957082
0.332639380810508
0.322390460831479
0.313598750421323
0.301334887920157
0.293847997938955
0.282804076728442
0.276216667182026
0.267076700373367
0.260952913830693
0.25351925767729
0.24834882878482
0.242648529028218
0.237936398999835
0.232739602092546
0.228716943481587
0.22385918832224
0.220506451848438
0.216079642486986
0.212152211988052
0.207623771398186
0.202883143991466
0.196781645161259
0.1927765489366
0.187779256086426
0.183424669111365
0.1789668090234
0.174449874062762
0.169490679514446
0.166303164462512
0.161227899394203
0.158202238129808
0.1524239102801
0.149849955243831
0.143942212559497
0.141326211233948
0.135199179401826
0.132740041335107
0.127293142333965
0.124479182827662
0.119361353768844
0.116265487375077
0.111511217237032
0.10868352101819
0.103125726923197
0.100552615047211
0.0960076279841977
0.0925431585695666
0.086391946912263
0.0833267568024196
0.0771868492789995
0.0730543550804866
0.0653475842358121
0.0596286615646208
0.0499977873799714
0.0457924937468979
0.0366418094477119
0.0336094447079323
0.0260669523614137
0.0237448196728287
0.0183180408971236
0.016620621583726
0.0128685469575235
0.0115004915594482
0.00913983685391187
0.00798543343203266
0.00612961081620549
0.00539965430874638
0.00424202614064854
0.0037871033782282
0.00311572571469134
0.00282837569467424
0.0024839808985088
0.00223458898353026
0.00183053880097339
0.00147660604760439
0.00110965774897269
0.000773673224507712
0.000456014393161205
0.000241763159367071
9.37962201793317e-05
1.19652705045333e-05
0.481418541026915
0.474650196174496
0.464737830878049
0.459299860656281
0.447850432752192
0.442024761720174
0.432072426166512
0.426269012063865
0.418078485479353
0.411911375084493
0.402749682965147
0.396421124583462
0.386042684297963
0.380833747597009
0.37328440383584
0.366003889610984
0.354901467350914
0.349262972249141
0.339727845230733
0.332640298097496
0.322390138680265
0.313598897100754
0.301334039471157
0.293848043193175
0.282803542124949
0.276216922052024
0.267076349942857
0.260953130467304
0.253518772007629
0.248349041731692
0.242648167195792
0.237936549147942
0.232739161229131
0.228717137760647
0.223858696621206
0.22050670432285
0.216079568099775
0.212152768418399
0.207623470791844
0.202883302643037
0.196781059611711
0.192776699137122
0.187778987769096
0.183425007633427
0.178966546630735
0.174449943329169
0.169490192597367
0.166303267214449
0.161227633809911
0.158202393434001
0.15242357614113
0.14985011430266
0.143941961583898
0.141326354219328
0.135198813607603
0.132740144588745
0.127293050178436
0.124479678107804
0.119360970575787
0.116265486434131
0.111511138451783
0.10868378157338
0.1031253833701
0.100552759807079
0.0960076107162969
0.0925435397033306
0.0863915156395513
0.0833270832184354
0.0771869653494917
0.0730546636537977
0.0653475054708694
0.0596286688946097
0.0499975149479217
0.0457925037761995
0.0366415997940534
0.0336094442429196
0.0260667469861106
0.0237448030351935
0.018317861774911
0.0166206099227761
0.0128684778363774
0.0115005779024541
0.00913977330283092
0.00798545060704933
0.00612950172772829
0.00539966067943083
0.00424191697592961
0.00378709380083858
0.00311563984240304
0.00282838902103095
0.0024840116610912
0.0022346692804855
0.00183053460291702
0.00147666901403835
0.00110964736046551
0.000773702220016917
0.000456015293703421
0.000241776486871413
9.37914464001252e-05
1.19677237211827e-05
0.481421404951337
0.474647868729514
0.464735611872597
0.459299027796046
0.447849615438655
0.44202589454234
0.432073616181348
0.426269979899824
0.418077248858729
0.411910749311288
0.402749152527449
0.396421871631394
0.386041560788795
0.380834027052275
0.373284277293067
0.366004611911539
0.354900187304923
0.349263153465456
0.339727947132016
0.332641273405136
0.322389827426786
0.313598999095317
0.301333184625213
0.29384806143195
0.282802935137046
0.276217143112322
0.26707596605519
0.260953332514619
0.253518246988878
0.248349249195016
0.24264776499967
0.237936713087298
0.232738617360387
0.228717322032337
0.22385806641872
0.220506968094204
0.216079492939453
0.212153325071377
0.207623137622124
0.202883420691008
0.196780481871068
0.192776859823185
0.187778685667451
0.183425347278134
0.178966273100827
0.174449971474613
0.169489688124591
0.166303380126806
0.161227304037055
0.158202542135367
0.152423183819732
0.149850270133315
0.143941665747203
0.141326497381401
0.135198364745382
0.13274024427883
0.127292952455927
0.124480192964514
0.119360570589669
0.116265500813021
0.111511060021805
0.10868408586969
0.103124984555841
0.100552911958255
0.0960075613274489
0.092543938484577
0.0863910580352575
0.0833274903666029
0.0771871703080624
0.0730550105830171
0.0653474311263416
0.0596286401096356
0.0499972334375924
0.0457925042835678
0.0366413589516906
0.0336094289203949
0.0260664982313393
0.0237447782493959
0.0183176413019503
0.016620586146523
0.0128683969566473
0.0115006613362666
0.00913970445526285
0.00798546935288628
0.00612937356191005
0.00539965809470112
0.00424179398305195
0.00378708019029073
0.00311554278421847
0.00282840361591157
0.00248405215903406
0.00223476526758957
0.00183053186845628
0.00147674228389648
0.00110964328637948
0.000773741339100034
0.00045601860609447
0.00024179155152931
9.37871476453232e-05
1.19704243849559e-05
0.481425266025035
0.474643600339664
0.464732579368671
0.459298078449408
0.44784889513945
0.442027120051488
0.432075093431674
0.426271101032787
0.418076051340879
0.411910053843192
0.402748744041738
0.396422474609533
0.386040621404605
0.380834320751857
0.373284193325108
0.366005105834087
0.3548991433546
0.349263431392102
0.339728154925627
0.332642052854537
0.322389648723376
0.313598917184615
0.301332507682942
0.293847992496407
0.282802445202332
0.276217272471777
0.267075660331276
0.260953435300297
0.253517829881226
0.24834939224331
0.242647451253662
0.237936811465966
0.23273813244594
0.228717444621751
0.223857468785779
0.220507200606427
0.216079480071761
0.212153717555905
0.207622855917661
0.202883338064399
0.196780081430793
0.192776963871058
0.187778448512955
0.183425585840824
0.178966077170045
0.174449911761171
0.16948930832375
0.166303473412828
0.161227019163295
0.158202642524033
0.15242284895305
0.149850385010738
0.143941413570343
0.141326595425918
0.135197939853971
0.132740327543307
0.127292901662627
0.124480570422994
0.119360269947223
0.116265508332321
0.111511011404766
0.108684349352837
0.103124647372116
0.100553047908492
0.096007532737199
0.0925442164935762
0.0863907129513121
0.0833278917540842
0.0771874490597397
0.0730553492210814
0.065347400714922
0.0596285326487315
0.0499970159215844
0.0457924818440839
0.0366411427984721
0.033609378294313
0.0260662647587926
0.0237447279453197
0.0183174307615736
0.0166205443994153
0.0128683260265045
0.0115007104960636
0.00913965827096755
0.00798547379939914
0.00612925634319558
0.00539963674097303
0.00424168433971314
0.00378705937152897
0.00311545564727676
0.00282840557253869
0.00248408829160853
0.00223485876083725
0.00183054727404159
0.00147680947900182
0.0011096488559983
0.000773784594864657
0.000456025395271359
0.000241806691900133
9.3784598373508e-05
1.19722619001069e-05
0.481430041008772
0.474636996582901
0.464729293614333
0.459297328447585
0.447848351035569
0.442028401346297
0.432076737267286
0.426272379380175
0.418074881219306
0.41190932339331
0.402748361708898
0.396423027753627
0.386039720863029
0.380834688430737
0.373284074560089
0.366005488735781
0.354898028156234
0.349263769494468
0.339728374340665
0.332642816887757
0.322389463863031
0.313598675878992
0.301331799891815
0.293847885337003
0.282801936973901
0.276217377603925
0.267075328412545
0.260953501673192
0.253517411543196
0.248349540381367
0.242647132773695
0.237936902052775
0.232737616694204
0.22871756227808
0.223856858025507
0.220507452490484
0.216079487356854
0.212154103498693
0.207622570030187
0.202883075574756
0.19677969562649
0.192777043867843
0.187778246486377
0.183425815485975
0.178965888857515
0.174449807111742
0.169488947166101
0.166303584493741
0.161226708432035
0.158202722870956
0.152422520330636
0.149850505166391
0.143941149688842
0.141326683500178
0.135197495965674
0.132740425409133
0.127292858602574
0.124480944052237
0.119360002383104
0.116265507054274
0.111510970313735
0.108684618449979
0.103124315243217
0.100553198816679
0.096007512802365
0.0925444356319293
0.0863903865935807
0.0833282951093688
0.0771877656278366
0.073055739255831
0.0653473823006422
0.059628365916625
0.0499967984345523
0.0457924495367751
0.0366409116798525
0.0336093112083634
0.0260660211483251
0.0237446616033746
0.0183172136104028
0.0166204911750725
0.0128682542708743
0.0115007509288186
0.00913962173899405
0.00798547231282666
0.0061291344879064
0.00539960749844337
0.00424157061440027
0.00378703448397762
0.00311536560668453
0.00282840393479605
0.00248411903999637
0.00223495200224932
0.00183056650212965
0.0014768787758664
0.00110965837790934
0.000773829263983027
0.000456031533399013
0.000241827815536302
9.378367043743e-05
1.19742638761844e-05
0.481435319032739
0.47462903410314
0.464726104492266
0.459296877023814
0.447848010688236
0.442029589446396
0.432078446100564
0.42627370468314
0.418073647745453
0.411908476687334
0.402747911427171
0.396423599340113
0.386038758386205
0.380835036121339
0.373283921623661
0.366005874533662
0.354896713235623
0.34926408252797
0.339728593566062
0.332643607168662
0.322389221622956
0.313598368893345
0.301331045766831
0.293847765956234
0.282801357459723
0.276217523234715
0.267074941560604
0.260953596926111
0.253516949979868
0.248349745548453
0.242646776369791
0.237937015135548
0.232737044298408
0.228717706690749
0.223856255218866
0.220507717509119
0.216079507399438
0.212154523536481
0.207622248408277
0.20288278777084
0.196779269959092
0.192777099865123
0.187778084212673
0.18342605278022
0.178965697056264
0.174449695806803
0.169488601798085
0.166303719643597
0.161226380812023
0.158202791784998
0.15242219835119
0.14985066784431
0.143940857050826
0.141326782534149
0.135197027651476
0.132740533731439
0.127292829392921
0.124481345592619
0.119359747046368
0.116265490172433
0.111510936821701
0.108684927228862
0.103123958995734
0.100553368694187
0.0960075022199269
0.0925446524505239
0.086390026056731
0.083328668893551
0.0771880855540902
0.0730561695542628
0.0653473649727674
0.0596281517663737
0.0499965681313497
0.0457924040842398
0.036640654130585
0.0336092325214049
0.0260657560742879
0.0237445812522893
0.0183169817377582
0.0166204292168576
0.0128681794394057
0.0115007895538231
0.00913958992024677
0.00798546766074366
0.00612900269613006
0.00539957720556462
0.0042414387486451
0.00378700791230231
0.00311527074547474
0.00282840084459188
0.00248414702971312
0.00223505268797185
0.00183058101713365
0.00147695125412873
0.00110966872216268
0.000773871744452537
0.000456034217998766
0.000241850543352861
9.37834789316056e-05
1.19763960371757e-05
0.481441359209011
0.474621408499137
0.46472318512169
0.459296754549721
0.447847890995337
0.44203071020978
0.43208012947176
0.426275012486965
0.418072297167559
0.411907530328832
0.402747412906864
0.396424225935349
0.386037771140828
0.380835316615358
0.37328374704235
0.366006280660261
0.354895217190679
0.349264362626426
0.339728818522347
0.33264440469118
0.322388909929213
0.313597997867371
0.301330286331127
0.29384765329886
0.282800736336665
0.276217787719387
0.267074539516288
0.260953705979742
0.253516454062518
0.248350037352362
0.242646389816479
0.237937181263096
0.232736440058112
0.228717910981865
0.223855646022794
0.220507957213057
0.216079536544381
0.212154969583602
0.207621866964539
0.202882524798744
0.196778811965776
0.192777133431103
0.187777934312213
0.183426302373216
0.178965504333414
0.174449588744036
0.169488226307506
0.166303849014343
0.161226080514628
0.158202836464857
0.152421895298133
0.149850859814523
0.143940551226505
0.141326919437654
0.135196556867143
0.132740585865184
0.127292821558472
0.124481778270264
0.119359499783625
0.116265461662113
0.11151091818706
0.108685280692779
0.10312358543242
0.100553539213009
0.0960075029966813
0.0925448747292383
0.086389629330056
0.0833290027707214
0.0771883885942566
0.0730566162283943
0.0653473345531957
0.0596279055583729
0.0499963444185679
0.0457923348914993
0.0366403808546939
0.0336091404719212
0.026065473657237
0.0237444884197324
0.0183167382981732
0.0166203596314314
0.0128681041743227
0.0115008268927312
0.00913956210145075
0.00798546051602454
0.00612886528327442
0.0053995437239885
0.0042412952049331
0.00378698049436231
0.00311517620225066
0.00282839316108276
0.00248417336421378
0.00223517071749301
0.00183059459863137
0.00147702296757384
0.00110967992978598
0.000773912261967271
0.000456033755075511
0.000241867780746542
9.37833267560025e-05
1.19787098499433e-05
0.481448104571269
0.474615056588383
0.464720609948096
0.459297041451621
0.447847954351942
0.442031917455803
0.432081635783136
0.42627626506207
0.41807075431349
0.41190648025864
0.402746933452203
0.396424934354489
0.386036771356179
0.380835590620634
0.37328356801621
0.366006688916944
0.354893697979031
0.349264592504106
0.339729057811859
0.332645159994953
0.322388561423928
0.313597585901789
0.301329520451742
0.293847556468188
0.282800097655041
0.276218124604492
0.267074166449107
0.260953792338266
0.253515899902113
0.248350350853613
0.242645966349177
0.237937341701095
0.232735807309099
0.228718112117389
0.223854949221604
0.220508183507872
0.21607957111732
0.212155432315399
0.20762145945491
0.202882358775164
0.196778314582235
0.192777174487933
0.187777746861337
0.183426590996418
0.178965307983725
0.174449488682824
0.169487756805488
0.166303966716155
0.161225747314701
0.15820287869291
0.152421548698755
0.149851031704687
0.14394025017312
0.141327051480747
0.135196075709659
0.132740605850718
0.127292834264166
0.124482236839561
0.119359257456248
0.116265425990792
0.11151091517166
0.108685644211348
0.103123200589264
0.10055368448793
0.0960075132062285
0.0925451032935385
0.0863892278821023
0.0833293359650792
0.0771886796838319
0.0730570637992249
0.0653472827065832
0.0596276443086
0.049996140468526
0.0457922536444329
0.0366400997555261
0.0336090351026392
0.0260651770397962
0.0237443827885789
0.0183164849090939
0.0166202842834247
0.012868029199959
0.0115008639677895
0.00913953863940412
0.00798545005312799
0.00612872340686639
0.00539950672343062
0.00424114880193645
0.00378694992010085
0.00311507744527889
0.00282837828769083
0.00248420039961227
0.00223530841333724
0.00183061149348105
0.00147710133111702
0.0011096908784514
0.000773954390978469
0.000456031597477079
0.000241884200380299
9.37816814729779e-05
1.19809709447606e-05
0.481455471450028
0.474610108238794
0.464718579943679
0.45929773423496
0.447848125654949
0.442033080739793
0.432082911049942
0.426277440036826
0.418068960924769
0.411905371974676
0.402746551930257
0.396425777754851
0.386035711877782
0.380835842356954
0.373283405696329
0.366007099585063
0.354892289662053
0.349264812387859
0.339729315208554
0.332645846797342
0.322388199636727
0.313597180600906
0.301328751293222
0.293847463021875
0.282799405037998
0.276218337881862
0.267073804050428
0.260953909065802
0.253515309402285
0.248350652408011
0.242645526417703
0.237937447147534
0.23273512830654
0.228718272045333
0.223854201518696
0.220508436123027
0.216079613647942
0.212155902069427
0.207621078769968
0.202882336268935
0.196777792005207
0.192777225053307
0.187777540858529
0.183426952449751
0.178965110230307
0.174449399685474
0.169487229556145
0.166304090466424
0.161225338057266
0.158202944698855
0.152421127781812
0.149851185089909
0.14393994134381
0.141327147799867
0.135195603385487
0.132740651771691
0.127292873136871
0.124482702155216
0.119359008993722
0.116265379763843
0.11151092569026
0.108686007049212
0.103122806535722
0.100553802939457
0.0960075300803056
0.0925453414951602
0.0863888588510842
0.0833296974423317
0.0771889692394891
0.0730574991169026
0.0653472147056605
0.0596273734141549
0.0499959594634943
0.0457921819327739
0.036639813542176
0.0336089103931814
0.0260648691772759
0.02374426351013
0.018316228562423
0.0166202098041114
0.0128679547824317
0.0115008984475353
0.00913952058909615
0.00798543759021775
0.00612857775157938
0.00539946899136394
0.00424099959712507
0.00378691540581672
0.00311496952073143
0.00282836698584001
0.00248422967533053
0.00223545165012425
0.00183062906941799
0.00147719187702339
0.00110970305935963
0.000773998440739948
0.000456027770798258
0.00024190157374681
9.37792040129845e-05
1.1983331112607e-05
0.481463221871476
0.474607214671231
0.464716912049045
0.459298643031471
0.447848381176241
0.442034002065903
0.432084029095508
0.426278566942916
0.418066875593294
0.411904280448819
0.402746315305341
0.396426774901954
0.386034579746656
0.380835980062197
0.373283279820127
0.366007535221387
0.354891003481534
0.349265090226015
0.339729573135694
0.332646514351214
0.322387790926565
0.31359680094714
0.30132797571985
0.293847337465242
0.282798648675741
0.276218452731491
0.267073385500175
0.260954098100734
0.2535147018294
0.248350985539771
0.242645078318117
0.237937548516846
0.232734393865716
0.228718427781234
0.223853464188692
0.220508719455998
0.216079666015827
0.212156384182606
0.20762070837923
0.202882405981523
0.196777211281544
0.192777235149089
0.187777338195416
0.18342735685564
0.178964915117223
0.174449316428878
0.169486657440591
0.166304240272657
0.161224884378691
0.158203044528258
0.152420660290483
0.149851326825987
0.143939599979055
0.141327235658399
0.135195171328251
0.132740743715812
0.127292944159681
0.124483178006802
0.119358733443776
0.116265320593806
0.111510947066772
0.108686382357824
0.103122394136003
0.100553910746648
0.0960075495923773
0.0925455939718121
0.0863885347335399
0.0833300934190593
0.0771892527673373
0.0730579207981906
0.0653471206131695
0.0596270805047022
0.0499957897989483
0.045792111203143
0.0366395154006608
0.0336087575376717
0.0260645502236857
0.0237441328422236
0.0183159794151266
0.0166201460465135
0.0128678817591074
0.0115009313993225
0.0091395022608908
0.00798542426726576
0.00612842626841638
0.0053994345717191
0.00424084091193129
0.00378688131769887
0.00311484906137095
0.0028283689663331
0.0024842652540369
0.00223559632580465
0.0018306418726586
0.00147729870927389
0.00110971669246717
0.000774042867316239
0.000456022850024928
0.000241920860298834
9.37757352788126e-05
1.19856553331218e-05
0.48147125260812
0.474605679826959
0.464715108381057
0.459299620916036
0.447848713496729
0.442034742014907
0.432085029148692
0.426279673329621
0.41806454929842
0.411903172595679
0.402746170304742
0.39642784101269
0.386033437713222
0.380836057346776
0.373283218498596
0.366008006033758
0.354889779675443
0.349265442069902
0.339729815273173
0.332647184615301
0.322387296490723
0.313596465550153
0.301327178216293
0.293847210704988
0.282797908023541
0.27621856712987
0.267072962737426
0.260954283299711
0.253514098134091
0.248351347878864
0.242644624098575
0.237937689362381
0.232733632368603
0.228718605983622
0.223852802050609
0.22050900180447
0.216079726482541
0.212156874166449
0.207620330184304
0.202882528506436
0.196776551192813
0.192777216882722
0.187777155261521
0.183427755766583
0.178964755197638
0.174449229837705
0.169486059928656
0.166304433878031
0.161224417488971
0.158203185969951
0.15242018091797
0.149851469122989
0.143939237706057
0.141327337478346
0.135194800729925
0.132740855969936
0.127293038274402
0.124483658211224
0.119358431419347
0.116265252063964
0.111510978721442
0.108686783094696
0.103121967034298
0.100554016888174
0.0960075727514079
0.0925458522841947
0.0863882455150917
0.0833305120489251
0.0771895279500658
0.0730583345067374
0.0653470022888093
0.0596267527203632
0.0499956275655674
0.0457920241332559
0.0366392060114367
0.0336085699026241
0.0260642250275186
0.0237439937214879
0.0183157447145409
0.0166200933641751
0.0128678100177196
0.0115009621935808
0.00913947904753226
0.00798540790375059
0.00612826978406009
0.00539940836147407
0.00424067249894461
0.00378685474522704
0.00311473124421772
0.00282838093166497
0.00248430879469271
0.00223575250112407
0.00183064989535156
0.0014774180117413
0.00110973149714191
0.000774087515752404
0.00045601643402802
0.000241941996689151
9.37712560332769e-05
1.19882467211276e-05
0.48147958497373
0.4746033551232
0.464713192327412
0.459300668530575
0.447849171681179
0.442035469597713
0.432085925050667
0.426280751920025
0.418062027042263
0.411901995756965
0.402746048932328
0.396428928229581
0.386032301851028
0.38083617422291
0.37328321494662
0.366008550819154
0.354888583597955
0.349265849102272
0.339730066655173
0.332647881610759
0.322386726915453
0.31359618802541
0.301326342067905
0.293847118922048
0.282797272880102
0.276218717736875
0.267072629490159
0.260954433628585
0.253513530414968
0.248351651698987
0.242644173323464
0.237937916622071
0.232732892651761
0.22871882714371
0.223852288601475
0.220509287356079
0.216079777258335
0.212157398503813
0.207619947572945
0.202882695642395
0.196775818873153
0.192777205374694
0.187776979452303
0.183428176108566
0.178964535014352
0.174449155248404
0.169485461695147
0.166304657358144
0.161223955708427
0.158203376072752
0.152419733520371
0.149851634936745
0.143938885156716
0.141327488707843
0.135194439972887
0.132740983561269
0.127293118661038
0.124484157576719
0.119358095849582
0.116265181774429
0.111511017214694
0.108687210447237
0.103121526505307
0.100554130854317
0.0960075981931335
0.0925461168955032
0.0863879745429827
0.0833309510532242
0.0771897946396489
0.0730587516226812
0.0653468878528984
0.0596264031496344
0.0499954675505798
0.0457919127668658
0.0366388848712976
0.0336083504118001
0.0260638971171118
0.0237438486127785
0.0183155197285939
0.0166200451770905
0.0128677381827992
0.0115009974282941
0.00913944675825371
0.00798539006752029
0.0061281094461131
0.00539940594865795
0.00424051399137149
0.00378683539752347
0.00311462775955654
0.00282840262166219
0.00248436331283333
0.00223593016896275
0.00183065664210024
0.00147754020157559
0.00110974533576716
0.000774132445498494
0.000456008517873701
0.000241964787843369
9.37661214391238e-05
1.19909299003445e-05
0.481487957971678
0.474599692396565
0.464711580768127
0.459301870705995
0.447849845144092
0.442036239111971
0.432086765000387
0.426281779985231
0.418059282221454
0.411900770237868
0.402745953733113
0.396430062075767
0.38603113353464
0.38083635958632
0.373283224522524
0.36600920203683
0.354887433251789
0.349266280027366
0.339730411295533
0.332648635402702
0.322386158835501
0.313595956823374
0.301325467931715
0.293847081892593
0.282796652250235
0.276218880418969
0.267072287956704
0.260954585676676
0.253512961837157
0.248351919587436
0.242643729213809
0.237938178204611
0.232732230505882
0.228719114598702
0.223851809518808
0.220509587006705
0.216079782724745
0.212157982529282
0.207619573621286
0.202882901238739
0.196775026430785
0.192777216849533
0.187776771983903
0.183428634327503
0.178964215690612
0.174449106002127
0.169484859951645
0.166304854513019
0.161223503992798
0.15820356816287
0.15241938459562
0.149851822268323
0.143938604683807
0.141327667063228
0.135194036415001
0.13274112947808
0.127293185647487
0.124484679682657
0.119357711417921
0.116265109823083
0.111511062102406
0.108687642721376
0.10312108175447
0.100554259729662
0.0960076280379872
0.0925463840625287
0.086387710046494
0.0833314027206194
0.0771900534528008
0.0730591784999692
0.0653468055059375
0.0596260512287134
0.0499953044652698
0.045791776189808
0.0366385516442881
0.0336081111520011
0.0260635711070315
0.0237437015930247
0.0183152973779228
0.0166199984156074
0.0128676682412078
0.0115010409023883
0.0091394056163972
0.0079853719475166
0.0061279455414379
0.00539940968633765
0.00424036813655243
0.00378681893078874
0.00311452939673071
0.00282843305533071
0.00248443272780565
0.00223613531752002
0.00183065952224106
0.00147766004721413
0.00110975830908221
0.000774178295641265
0.000455999039087725
0.000241986871736624
9.37608285232591e-05
1.19938579441403e-05
0.481496139052147
0.474595326476853
0.464710431056569
0.459303298245187
0.447850695259713
0.442037000642774
0.432087536361594
0.426282768042204
0.418056320394616
0.411899560880277
0.402745905339999
0.396431249734691
0.386029907390687
0.380836596701095
0.373283192265191
0.366009907610352
0.354886318837993
0.349266719904534
0.339730702459346
0.332649462791097
0.322385574673493
0.313595773209389
0.301324541256226
0.293847121488222
0.282795947834303
0.276219080102943
0.267071792321554
0.260954766171567
0.253512318959129
0.248352204552939
0.242643231430232
0.237938419621209
0.232731568080654
0.228719432487438
0.223851211124264
0.220509916456143
0.216079721813055
0.212158645813992
0.207619192645799
0.202883139329884
0.196774170950426
0.192777258475316
0.187776518371415
0.183429142313115
0.17896386331163
0.174449084914326
0.169484208291892
0.166305035697428
0.161223033706531
0.158203744881129
0.152419032533835
0.149852007690137
0.143938317957153
0.141327830866162
0.135193618220068
0.13274129813269
0.127293248658167
0.124485233552366
0.119357257814887
0.116265037094038
0.111511109064208
0.10868808307275
0.103120641216946
0.100554408107792
0.0960076518570849
0.0925466604247781
0.0863874450926234
0.0833318649091593
0.0771903054897018
0.0730596214880164
0.0653467567226144
0.0596256959754473
0.0499951305679831
0.0457916163230659
0.0366382046073384
0.0336078692884198
0.0260632459725669
0.0237435584417537