/*--------------------------------*- C++ -*----------------------------------*\
| =========                 |                                                 |
| \\      /  F ield         | OpenFOAM: The Open Source CFD Toolbox           |
|  \\    /   O peration     | Version:  2.3.0                                 |
|   \\  /    A nd           | Web:      www.OpenFOAM.org                      |
|    \\/     M anipulation  |                                                 |
\*---------------------------------------------------------------------------*/
FoamFile
{
    version     2.0;
    format      ascii;
    class       volVectorField;
    location    "25000";
    object      U;
}
// * * * * * * * * * * * * * * * * * * * * * * * * * * * * * * * * * * * * * //

dimensions      [0 1 -1 0 0 0 0];

internalField   nonuniform List<vector> 
10000
(
(1.04258460959318 -2.73857746418746e-16 -0.000300187356615071)
(1.0751972507107 9.23433508067832e-15 -0.000118751035872391)
(1.09293298580882 -1.20309235675054e-14 -0.000109817593219214)
(1.11589992191122 -5.30233632072885e-16 -8.84002106588592e-05)
(1.13035034187444 3.33503849702134e-16 -8.44782571556091e-05)
(1.14758258187949 -8.70467658370985e-15 -6.96640068669755e-05)
(1.15948779660711 1.97461494475419e-15 -6.50940353727775e-05)
(1.17224068796974 2.28070413580037e-15 -5.25088131052118e-05)
(1.18125389034199 1.75144770347207e-15 -4.62423583198754e-05)
(1.18984913495281 1.85002974247515e-15 -3.45005265448128e-05)
(1.19549333784142 -3.23915201003734e-15 -2.69219120888883e-05)
(1.20006916473461 -1.77480024725627e-15 -1.6396263629799e-05)
(1.20230093151659 3.63644007270544e-15 -9.33829237666744e-06)
(1.20349414195653 1.5422199986496e-15 -2.15830663677294e-06)
(1.20332014717157 7.06675829820855e-16 1.40107930424806e-06)
(1.20278178338685 9.70082060894881e-16 4.24511067880084e-06)
(1.20173094162504 6.72029440276185e-16 5.02484804969131e-06)
(1.20070336759763 3.81816322191681e-16 5.63715072179463e-06)
(1.19955174385329 3.7771126427606e-15 5.3244748536053e-06)
(1.19854404867258 1.08815052611565e-15 5.11870561164149e-06)
(1.19755577898074 2.73435950499118e-16 4.53065629862633e-06)
(1.19672016868427 2.70422030893771e-16 4.11517172815422e-06)
(1.19594439851364 4.9801874059349e-17 3.5537181508973e-06)
(1.19529527309015 -1.27522411431631e-16 3.14845879821694e-06)
(1.1947083420025 -1.14965782110312e-16 2.69524570921057e-06)
(1.19421743178746 -1.1634547561619e-14 2.36145444610494e-06)
(1.19377953943186 -1.66508348119027e-15 2.01836568655598e-06)
(1.19341184308624 -5.79044135619182e-16 1.76019705017353e-06)
(1.1930862439599 -4.43006535695466e-16 1.50679144152003e-06)
(1.1928113489276 -4.86091192031753e-16 1.31189063592308e-06)
(1.19256894771223 -4.83840902476941e-16 1.12597081892131e-06)
(1.19236316415342 -3.53485352786436e-15 9.79958440503831e-07)
(1.19218219044998 -2.47361983044283e-15 8.43364774467527e-07)
(1.19202779508448 -1.25600962154658e-15 7.34060163175178e-07)
(1.19189227116169 1.39679702676669e-15 6.33272925450499e-07)
(1.19177616661284 -2.67509550659096e-16 5.51316267879266e-07)
(1.19167439913695 -6.56254500607438e-15 4.76594869146861e-07)
(1.19158691135818 -2.06934008177179e-15 4.15022386180811e-07)
(1.19151031005834 -1.13185528555078e-15 3.5939671475895e-07)
(1.19144426588219 -9.79136063448111e-16 3.1306611040407e-07)
(1.19138648365323 -8.98608547123948e-16 2.71523849571384e-07)
(1.19133653948617 -8.270434738475e-16 2.36624871933904e-07)
(1.19129286216745 -9.34542887477058e-15 2.05521389102852e-07)
(1.19125502445559 -2.33759724169459e-15 1.7921066879287e-07)
(1.19122193840388 -1.43292956914894e-15 1.55870562868502e-07)
(1.19119321709494 -1.62910569909888e-15 1.36010288950041e-07)
(1.19116810003981 5.61521441576202e-16 1.18449728713282e-07)
(1.19114625708574 -1.12352096240316e-15 1.03427596010462e-07)
(1.19112715213462 5.54050529000118e-16 9.01708891842209e-08)
(1.19111051368477 -1.2890358046117e-15 7.8770672788744e-08)
(1.1910959617779 2.63358334589564e-16 6.87191031088996e-08)
(1.19108327688715 -7.93379511059126e-16 6.00381166709812e-08)
(1.19107218625915 -1.64889350681749e-15 5.23859339540642e-08)
(1.19106251565761 1.06178241505132e-16 4.57523859832183e-08)
(1.19105406647709 -1.55229410662435e-15 3.99067295111898e-08)
(1.19104670129058 1.51188135841458e-17 3.48287545713281e-08)
(1.19104027203067 -1.70045101777853e-15 3.03598305421175e-08)
(1.19103467092799 -8.56915403725684e-16 2.64736707900915e-08)
(1.1910297862156 -1.90562813401205e-15 2.30613933525462e-08)
(1.19102553310265 -7.34642496660556e-16 2.00985977615384e-08)
(1.19102182509197 -1.97899758799915e-15 1.75125377095839e-08)
(1.19101859423772 -1.15809863260037e-15 1.52707207192825e-08)
(1.19101577599832 -1.49938048992436e-15 1.33242052952392e-08)
(1.1910133150078 -4.86615728113866e-16 1.16478748011201e-08)
(1.19101116174126 1.00865249874071e-16 1.02019962364742e-08)
(1.19100927288289 -1.57909002373974e-15 8.94656727142199e-09)
(1.19100761736335 -3.84644646203101e-16 7.85789950168542e-09)
(1.19100615954874 -1.67950654972386e-15 6.91708000529416e-09)
(1.19100487689935 -3.58370738758768e-16 6.10478665931071e-09)
(1.19100374078121 -1.80110516759852e-15 5.39637222818992e-09)
(1.19100273889567 -6.21723770380979e-16 4.77419346615474e-09)
(1.19100184915576 -4.05873106266931e-16 4.22988990548447e-09)
(1.19100106302133 -5.14653627118938e-16 3.75278436792128e-09)
(1.19100036230512 -1.2708372279553e-15 3.3334485913905e-09)
(1.19099974221264 -1.77144338171774e-15 2.97060131089738e-09)
(1.19099918540295 -9.47615033345231e-16 2.64772446835096e-09)
(1.19099869308901 -1.77196778009495e-15 2.3619214143516e-09)
(1.19099824959668 -9.54354317020075e-16 2.11043491123218e-09)
(1.19099785691186 -8.67387374512278e-16 1.88691989727472e-09)
(1.19099750192451 -5.39350208097978e-16 1.69176677257011e-09)
(1.19099718666622 -1.50408542816158e-15 1.51481707080227e-09)
(1.19099690158799 -8.80118639269554e-16 1.36187592846574e-09)
(1.19099664718423 -1.63608920165586e-15 1.21954389161599e-09)
(1.19099641823118 -1.17911856496537e-15 1.0938858525623e-09)
(1.19099621385864 -1.6779440167237e-15 9.7844287974278e-10)
(1.19099603045651 1.57014284673224e-15 8.74719658561335e-10)
(1.19099586732327 -9.95428976387757e-16 7.82016570280034e-10)
(1.19099572060121 -1.46061317093709e-15 6.94948929998372e-10)
(1.1909955919276 -1.04836158532171e-15 6.30357240607132e-10)
(1.19099547086646 -1.4257914717374e-15 5.83775662650656e-10)
(1.19099536051915 -2.12593646646547e-15 4.81000692026453e-10)
(1.19099528062488 -1.15731457337189e-15 2.49517315671657e-10)
(1.19099526242371 -7.70313243118147e-16 -5.20776271505262e-11)
(1.19099530254559 -9.121009179914e-16 -3.73617426505705e-10)
(1.19099541177384 -2.25119771154737e-16 -6.60148361357079e-10)
(1.19099556553469 -8.88787589602978e-16 -8.82470112771649e-10)
(1.19099576259859 -9.74935708601575e-16 -1.01988631009469e-09)
(1.19099597044144 -8.61299570260509e-16 -1.05870345553027e-09)
(1.19099618268766 -6.51091375478824e-16 -1.00611819086317e-09)
(1.19099636899159 -8.2895781501415e-16 -4.71117136071705e-10)
(1.0425691670828 -5.56269184464929e-16 -0.000512950581067781)
(1.07515359441638 4.03209038283728e-15 -0.000201009113012778)
(1.09285044945224 -9.3810744286695e-15 -0.000187381453616334)
(1.11577313379405 -7.28422890931679e-16 -0.000150077053691072)
(1.13016996222511 7.040356064588e-16 -0.000144047621813773)
(1.14733901361988 7.94772847829701e-16 -0.000118232427838562)
(1.15916606041476 4.4454938051554e-15 -0.000110849991291497)
(1.17182636307199 4.67053580827884e-15 -8.90050340944199e-05)
(1.18073052818372 3.55480191999094e-15 -7.85706820851976e-05)
(1.18920657463463 3.78417856651537e-15 -5.83082720267944e-05)
(1.19472697979062 -6.84974463468844e-15 -4.5561696789032e-05)
(1.19918701230844 -3.5607104484306e-15 -2.75172158960636e-05)
(1.20132058385745 7.66855225283662e-15 -1.56525703081385e-05)
(1.20244574146719 3.05899123513659e-15 -3.44054157095867e-06)
(1.20223674113434 1.40903926329616e-15 2.47304557314957e-06)
(1.2016875297226 1.99328349524248e-15 7.29160524113115e-06)
(1.20063971814046 1.3609916386988e-15 8.54912567385283e-06)
(1.19962240607429 7.68466725555211e-16 9.59384390228745e-06)
(1.19848409294133 7.85250442879747e-15 9.03340994115095e-06)
(1.19749057984586 2.11866800847984e-15 8.6924683765902e-06)
(1.19651609094368 5.27332424898711e-16 7.68034018244041e-06)
(1.19569332836858 5.52836759040367e-16 6.9820204210003e-06)
(1.19492920281806 9.31116045598354e-17 6.02209170037289e-06)
(1.19429049686276 -2.67341444300877e-16 5.3391321416477e-06)
(1.19371279141107 -2.3963625695063e-16 4.56632617569998e-06)
(1.19323001726659 -1.16106243813613e-14 4.00308350107418e-06)
(1.19279927071969 -2.85417707142155e-15 3.41894354499784e-06)
(1.19243784388891 -1.14086006811393e-15 2.98296615996278e-06)
(1.19211773582056 -9.00191373050749e-16 2.55198456039778e-06)
(1.19184764871463 -9.94885012070402e-16 2.22267922540642e-06)
(1.19160945311363 -9.90141368174819e-16 1.90675012182401e-06)
(1.19140734740976 -1.40438041263788e-14 1.65995907378629e-06)
(1.19122958754949 -4.50762093512768e-15 1.42802033197869e-06)
(1.19107799953575 -2.52382419548152e-15 1.24322571767154e-06)
(1.19094492625797 2.96710178777615e-15 1.07219437086023e-06)
(1.190830960054 -6.12439995124293e-16 9.33608235799796e-07)
(1.19073105743127 -1.32088579458176e-14 8.0687557130367e-07)
(1.19064519530961 -3.76648878422142e-15 7.02741904734507e-07)
(1.19057001067886 -2.27941472551083e-15 6.08436813411919e-07)
(1.19050520060993 -1.99533687278489e-15 5.30070114683479e-07)
(1.19044849335157 -1.83336647475764e-15 4.59664980026228e-07)
(1.19039948529069 -1.70191552501775e-15 4.00627374943949e-07)
(1.19035662328588 -1.02509992481634e-14 3.47927411023989e-07)
(1.19031949555491 -4.51782905831058e-15 3.03413462575958e-07)
(1.19028702802619 -2.89623290657714e-15 2.6387503672383e-07)
(1.19025884552981 -3.33608478099551e-15 2.30270817184508e-07)
(1.19023419813925 1.22683327610441e-15 2.00527223468835e-07)
(1.19021276457105 -2.35665693191563e-15 1.75106737186453e-07)
(1.19019401672257 1.19704042225099e-15 1.52655112718346e-07)
(1.1901776897356 -2.7002572618617e-15 1.33361730744083e-07)
(1.19016340969241 5.94013325724324e-16 1.16339426888938e-07)
(1.19015096202924 -1.65922518776782e-15 1.01646750046052e-07)
(1.19014007851542 -3.40029632548594e-15 8.86883882567979e-08)
(1.19013058866367 2.80143823786505e-16 7.74601781443511e-08)
(1.19012229726607 -3.23190823415778e-15 6.75613215367856e-08)
(1.19011506974856 8.73006429719059e-17 5.89657140217674e-08)
(1.19010876056441 -3.53644803445369e-15 5.13985153494225e-08)
(1.19010326415642 -1.70183605284509e-15 4.4820108127727e-08)
(1.19009847067884 -3.93134068361533e-15 3.90423940696394e-08)
(1.19009429703826 -1.47771582235217e-15 3.40270357784228e-08)
(1.19009065823173 -4.08917414407272e-15 2.96486962819331e-08)
(1.19008748760686 -2.31808475320552e-15 2.58538116935311e-08)
(1.19008472186265 -3.07583099965192e-15 2.25584475346481e-08)
(1.19008230658147 -9.79024283744181e-16 1.97209665291349e-08)
(1.19008019323716 2.30361598002655e-16 1.72733962848885e-08)
(1.1900783392214 -3.2857259232666e-15 1.51480388269633e-08)
(1.19007671433902 -7.49371371146017e-16 1.33048537038363e-08)
(1.19007528336088 -3.47851429938385e-15 1.17120992895693e-08)
(1.19007402440381 -6.87281849845718e-16 1.03369126074437e-08)
(1.19007290912481 -3.73270988061429e-15 9.13749872290335e-09)
(1.19007192573918 -1.23839790253183e-15 8.08393537962287e-09)
(1.19007105233602 -8.30559221368361e-16 7.16225988674695e-09)
(1.19007028077854 -1.05444778788264e-15 6.3544062589749e-09)
(1.19006959292738 -2.62341484028583e-15 5.64433277233419e-09)
(1.19006898437187 -3.6378887019966e-15 5.03007764722169e-09)
(1.19006843774025 -1.90666793494478e-15 4.48332663714486e-09)
(1.19006795460903 -3.6506664596884e-15 3.99935648119596e-09)
(1.19006751923309 -1.92088578394294e-15 3.57357616849595e-09)
(1.19006713386847 -1.77686320597921e-15 3.19508431050562e-09)
(1.19006678537216 -1.0901956550178e-15 2.86478625227154e-09)
(1.19006647593945 -3.10762972298769e-15 2.56508897492682e-09)
(1.19006619607323 -1.77632931850637e-15 2.30624311852172e-09)
(1.19006594634052 -3.37064256944259e-15 2.06512024623959e-09)
(1.19006572158143 -2.39389442735597e-15 1.85236772354627e-09)
(1.19006552097126 -3.44455743153231e-15 1.65682978234488e-09)
(1.19006534092693 -2.45982123974849e-15 1.48116076258868e-09)
(1.19006518082875 -2.067286585943e-15 1.32423366152041e-09)
(1.19006503675472 -3.00127250376624e-15 1.17671009620009e-09)
(1.19006491051541 -2.12746945617331e-15 1.06790343146718e-09)
(1.19006479135037 -2.93316600490753e-15 9.88944195721642e-10)
(1.19006468320765 -2.24272971913267e-15 8.12052590528597e-10)
(1.19006460598093 -2.32867955867796e-15 4.15440173096713e-10)
(1.19006459053466 -1.55987806606251e-15 -9.82431389281626e-11)
(1.19006463256848 -1.86395649678275e-15 -6.44123894237028e-10)
(1.1900647428401 -1.5664761493391e-15 -1.12894836612073e-09)
(1.19006489621225 -1.84628387319568e-15 -1.50372519596143e-09)
(1.19006509179648 -1.85818696091631e-15 -1.7338518864628e-09)
(1.19006529692662 -1.71992621093255e-15 -1.79624015252117e-09)
(1.19006550572192 -1.63201542705445e-15 -1.70384699036121e-09)
(1.19006568798711 -1.71571812049606e-15 -7.93812802335117e-10)
(1.04253655755093 -8.24226728137813e-16 -0.000826555924763587)
(1.0750629583717 1.6015934072343e-16 -0.000322713713023489)
(1.09267753744129 -8.20630420396756e-15 -0.000302504108932059)
(1.11550766747935 -3.96589040012287e-16 -0.000240478704012705)
(1.12979190619409 1.12914941816372e-15 -0.000232087146206669)
(1.14682815428802 8.71370227100712e-15 -0.000189132531698299)
(1.15849079747584 6.93671844545065e-15 -0.000177983464049343)
(1.17095690173123 6.8482396446758e-15 -0.000141815092448688)
(1.17963351185232 5.09340267749554e-15 -0.000125401375293078)
(1.18786271049121 5.54050206364018e-15 -9.21903785228678e-05)
(1.19312927821624 -1.11052745498461e-14 -7.19993159018426e-05)
(1.19735451242521 -4.86752821124375e-15 -4.28298438407644e-05)
(1.19929180047087 1.26669115489772e-14 -2.42042172031518e-05)
(1.2002833135454 4.06622794985066e-15 -4.8050361036338e-06)
(1.2000066508793 1.89853417152958e-15 4.24925652725183e-06)
(1.19943704359691 2.99343965896984e-15 1.18382098499239e-05)
(1.19839586060956 1.95403004481281e-15 1.36693944634977e-05)
(1.19739951502946 1.08127430736084e-15 1.53268008142646e-05)
(1.1962881524255 1.22153816807093e-14 1.43646261800845e-05)
(1.19532336843518 2.66284457931993e-15 1.38363194244855e-05)
(1.19437676601879 6.46179774638637e-16 1.21944266183727e-05)
(1.19358003504322 7.83732786481959e-16 1.10974529049232e-05)
(1.19283949282344 9.58751713710056e-17 9.55485546386071e-06)
(1.19222190681508 -4.20068281668493e-16 8.47869550278101e-06)
(1.19166289166526 -3.44524624829654e-16 7.24141014847918e-06)
(1.19119660694999 -9.02784126221578e-15 6.35252218659697e-06)
(1.19078033339738 -3.44847720191309e-15 5.41933704654063e-06)
(1.19043160561665 -1.52886340532068e-15 4.73071375524131e-06)
(1.19012261189345 -1.29519503263079e-15 4.0433548504529e-06)
(1.18986225533164 -1.46077448601781e-15 3.52299619213317e-06)
(1.18963256544268 -1.44888428107183e-15 3.0198635682706e-06)
(1.18943789673405 -1.33041231874628e-14 2.62982019229123e-06)
(1.18926663168507 -5.78893075842563e-15 2.26092600928818e-06)
(1.18912071599973 -3.5448799775858e-15 1.96884848137183e-06)
(1.18899259189341 6.03392738418507e-15 1.69713442978193e-06)
(1.18888294354695 -1.19698647771198e-15 1.47808850093285e-06)
(1.18878680511831 -1.27240048435956e-14 1.2769422563678e-06)
(1.18870422406051 -4.78648781270558e-15 1.11234816115165e-06)
(1.18863189790637 -3.23029913741747e-15 9.62784852383708e-07)
(1.18856957781525 -2.90036133291288e-15 8.38913244776273e-07)
(1.1885150390377 -2.66992962759375e-15 7.27321122887439e-07)
(1.18846791928843 -2.48196708758962e-15 6.33996419616354e-07)
(1.18842670172186 -1.31950877496672e-14 5.50505049525287e-07)
(1.18839100597151 -5.99753558718534e-15 4.80132931683265e-07)
(1.18835978585529 -4.09637673356962e-15 4.17513856486913e-07)
(1.18833269001437 -4.92314757637699e-15 3.6438319059238e-07)
(1.1883089897732 2.0829357103743e-15 3.17287581664711e-07)
(1.18828838178636 -3.74535848034864e-15 2.77090947473114e-07)
(1.18827035405704 1.85762427133376e-15 2.41546807381175e-07)
(1.18825465513659 -4.27906293007254e-15 2.11034577110537e-07)
(1.18824092329061 1.10712940048249e-15 1.84088193532656e-07)
(1.18822895395844 -2.61206975796041e-15 1.60849046019368e-07)
(1.18821848804647 -5.11406776618481e-15 1.40337127123989e-07)
(1.18820936261189 6.97754891077442e-16 1.22575566879815e-07)
(1.18820138932149 -4.98688211881853e-15 1.069070276065e-07)
(1.18819443933337 3.94363414250589e-16 9.3308842415236e-08)
(1.18818837221476 -5.45656270301479e-15 8.13317931176251e-08)
(1.18818308684441 -1.58384397778673e-15 7.09242731960289e-08)
(1.18817847727869 -6.01510667579152e-15 6.17801684671302e-08)
(1.18817446382319 -1.4873438682562e-15 5.38455031727539e-08)
(1.18817096451936 -6.15957524293897e-15 4.69171925444148e-08)
(1.18816791529365 -2.35728857508187e-15 4.09134796049392e-08)
(1.1881652553779 -4.60977866013221e-15 3.56992327149025e-08)
(1.18816293223837 -7.11962310777674e-16 3.12105814035533e-08)
(1.1881608993936 6.92481130148918e-16 2.73384317656563e-08)
(1.18815911562732 -5.06929164820542e-15 2.39753265106699e-08)
(1.18815755253139 -1.43927158741684e-15 2.10582197280946e-08)
(1.18815617565589 -5.29735201377012e-15 1.85377402371291e-08)
(1.18815496448401 -1.45304075024442e-15 1.6361481848308e-08)
(1.18815389121912 -5.65101116624241e-15 1.44632148278581e-08)
(1.18815294514325 -2.11324215065877e-15 1.27953202917235e-08)
(1.18815210466528 -1.50320922787704e-15 1.13361696052867e-08)
(1.18815136249827 -1.55705589914002e-15 1.00574208748999e-08)
(1.1881507005628 -3.97769724485676e-15 8.9333341178352e-09)
(1.1881501152643 -5.40702891933255e-15 7.96139231456889e-09)
(1.18814958913031 -2.66389437114901e-15 7.09593579721766e-09)
(1.18814912450498 -5.48000555410582e-15 6.3297697099319e-09)
(1.18814870546526 -2.6546749130792e-15 5.6560295232498e-09)
(1.18814833484774 -2.35723658925851e-15 5.05689723523407e-09)
(1.18814799941004 -1.54403186777085e-15 4.53462177090169e-09)
(1.18814770171161 -4.71200110130756e-15 4.06011273234901e-09)
(1.18814743232866 -2.41833100064176e-15 3.65075938367467e-09)
(1.18814719200158 -5.03672826160235e-15 3.26889203649024e-09)
(1.18814697567261 -3.47946287955838e-15 2.93216829835555e-09)
(1.18814678263504 -5.12184719865715e-15 2.62257096983052e-09)
(1.18814660933675 -4.44816077981089e-15 2.34436536769043e-09)
(1.18814645534492 -3.02862730340326e-15 2.09619233799639e-09)
(1.18814631659009 -4.4701363763131e-15 1.86244517701396e-09)
(1.1881461952485 -3.04387815896435e-15 1.69217690680144e-09)
(1.18814607990536 -4.3564210466838e-15 1.56622567331579e-09)
(1.18814597629819 -2.33340924309916e-15 1.2758487081468e-09)
(1.18814590440899 -3.39317819065166e-15 6.330274254399e-10)
(1.18814589437624 -2.00755899986208e-15 -1.89664991405773e-10)
(1.18814594005332 -2.74995234396637e-15 -1.05795766633898e-09)
(1.18814605220078 -2.72054665413645e-15 -1.8238190189515e-09)
(1.18814620456297 -2.73639396160778e-15 -2.41089513039947e-09)
(1.1881463969899 -2.34917750757258e-15 -2.76619359478273e-09)
(1.1881465965253 -2.50130459763033e-15 -2.85344311562291e-09)
(1.18814679832228 -2.49944795204817e-15 -2.69576834291119e-09)
(1.18814697249244 -2.52317312960018e-15 -1.25316749923785e-09)
(1.04248862296946 -1.12123393064817e-15 -0.00113530857234167)
(1.07493057185488 -2.49146527700442e-15 -0.000442155424520534)
(1.09242540893539 -8.5002542643462e-15 -0.000415168958198635)
(1.11512120893819 3.23503184553954e-16 -0.000328688569030359)
(1.12924107308174 1.64169609818965e-15 -0.000317752299304455)
(1.14608310423214 6.31965340732422e-15 -0.000257628543406308)
(1.15750527284058 9.18144947044158e-15 -0.000242491804583363)
(1.16968863248098 9.00687627179085e-15 -0.000191877671597171)
(1.17803677812988 6.48578458436157e-15 -0.000169334692249889)
(1.18591422440894 7.2845078313829e-15 -0.000123249932825639)
(1.19082477501946 -1.36680497852329e-14 -9.57802568666151e-05)
(1.19472656724094 -5.62060547887693e-15 -5.59544003131483e-05)
(1.19639942056702 8.19802302583199e-15 -3.11269594813301e-05)
(1.19721610300515 4.36727950805146e-15 -5.26302658410234e-06)
(1.1968532652504 2.21135504772873e-15 6.3930702899113e-06)
(1.19625914806436 4.0994799213683e-15 1.63662068786168e-05)
(1.19522845090311 2.48632711129137e-15 1.85884867034868e-05)
(1.19426155007825 1.3421474948458e-15 2.07507600120749e-05)
(1.19318742879492 7.71965440504566e-15 1.93637071036259e-05)
(1.19226228404314 2.54401980324822e-15 1.86426802118471e-05)
(1.19135408183736 6.31371171651023e-16 1.63959362610607e-05)
(1.19059323707067 9.75997926542713e-16 1.49236766414661e-05)
(1.18988518339814 4.53817713267692e-17 1.2831342180785e-05)
(1.18929671819731 -6.07535132989676e-16 1.13889528721587e-05)
(1.18876345521267 -4.3855469748941e-16 9.71633434602636e-06)
(1.18831989874022 -7.29415650471919e-15 8.52522853226876e-06)
(1.18792355600859 -3.50132037903674e-15 7.26615300498571e-06)
(1.18759231558164 -1.79331490513878e-15 6.34359734039821e-06)
(1.18729861160325 -1.67165362653055e-15 5.41761613833637e-06)
(1.18705163760746 -1.93565660511482e-15 4.720732523882e-06)
(1.18683363428435 -1.9077041753774e-15 4.04387520898357e-06)
(1.18664918027808 -9.46356563771644e-15 3.52175191483044e-06)
(1.18648682812118 -6.56698829220449e-15 3.02611879334931e-06)
(1.18634869413239 -4.4297908149518e-15 2.63531923249923e-06)
(1.18622735484458 1.24026017563941e-15 2.27066775077591e-06)
(1.18612362435086 -2.19730880553569e-15 1.97770620107206e-06)
(1.18603264214844 -9.62043720466569e-15 1.70801718204632e-06)
(1.18595455474038 -5.30176738389986e-15 1.48795308364652e-06)
(1.18588614192288 -4.09855315018383e-15 1.28757758748081e-06)
(1.18582723033352 -3.78786042252544e-15 1.12199688737167e-06)
(1.18577565915051 -3.49164945898579e-15 9.72580479672215e-07)
(1.18573112345362 -3.24982287522734e-15 8.47848899833636e-07)
(1.18569215580613 -9.01440716418949e-15 7.36106339279049e-07)
(1.18565841926365 -7.07564288568923e-15 6.42057341938344e-07)
(1.18562890563667 -5.16497692908786e-15 5.58274639466411e-07)
(1.18560329636563 -6.57150798849095e-15 4.87267407699931e-07)
(1.1855808917513 -1.16002757770824e-15 4.24266545737808e-07)
(1.18556141308861 -5.54084281468191e-15 3.70541870729289e-07)
(1.18554437037003 -1.74192105268175e-15 3.2299861774454e-07)
(1.18552953051959 -6.29054721862756e-15 2.82213435978628e-07)
(1.18551654846243 -2.54108977951393e-15 2.46171501472429e-07)
(1.18550523331944 -3.83040748301748e-15 2.15104950902691e-07)
(1.1854953385153 -6.99543837508112e-15 1.87669615309309e-07)
(1.18548671140836 -2.99596248496924e-15 1.63922954956758e-07)
(1.18547917310205 -7.11172444282096e-15 1.42965341316056e-07)
(1.18547260256618 -3.42836671089121e-15 1.24783763271707e-07)
(1.18546686641122 -7.77696176804361e-15 1.08764445220721e-07)
(1.18546186954653 -5.47932675868148e-15 9.48484492206126e-08)
(1.18545751141065 -8.36517694873435e-15 8.26189110273726e-08)
(1.18545371692043 -5.37384047127308e-15 7.2009703667953e-08)
(1.18545040833695 -8.50994102477856e-15 6.27453765459169e-08)
(1.18544752506088 -6.27306925559542e-15 5.47183558104218e-08)
(1.18544500984771 -6.22396671621036e-15 4.7746500999622e-08)
(1.18544281268712 -4.30898947107929e-15 4.17460514621584e-08)
(1.18544088995219 -3.06418660331128e-15 3.65698082091548e-08)
(1.18543920226369 -7.22807501125005e-15 3.20722301716073e-08)
(1.18543772370426 -4.39157708762604e-15 2.81704643623009e-08)
(1.18543642081955 -7.43275645309123e-15 2.47995766454386e-08)
(1.18543527503958 -4.51861689082934e-15 2.1889004382823e-08)
(1.18543425924153 -7.88150464913061e-15 1.93498299847026e-08)
(1.18543336421824 -5.17504044813904e-15 1.71180236407657e-08)
(1.18543256875576 -4.50854722291987e-15 1.51653560598067e-08)
(1.18543186679176 -4.37990680855563e-15 1.34545535486551e-08)
(1.18543124026521 -5.51482064004908e-15 1.19504578102657e-08)
(1.18543068677319 -7.27359962337139e-15 1.06507276568995e-08)
(1.18543018863629 -5.50078096845206e-15 9.49288485714821e-09)
(1.18542974930904 -7.50433174300779e-15 8.46761285006614e-09)
(1.18542935256561 -5.42438536411452e-15 7.56666965293197e-09)
(1.18542900209677 -5.02712030020563e-15 6.76504966849052e-09)
(1.18542868447133 -4.19269998916918e-15 6.0673143879431e-09)
(1.1854284028004 -6.53634593300022e-15 5.43227183252484e-09)
(1.18542814771355 -5.10237266568152e-15 4.88520705768323e-09)
(1.18542792022737 -6.86977069533518e-15 4.37401527861306e-09)
(1.18542771538354 -5.61772402086018e-15 3.92347375301871e-09)
(1.18542753267891 -6.91451190878916e-15 3.50915326582229e-09)
(1.18542736856386 -6.2274982854517e-15 3.13657757188102e-09)
(1.18542722290083 -5.02267416680269e-15 2.8049739883047e-09)
(1.18542709138435 -6.03888661178849e-15 2.49175589634355e-09)
(1.18542697672433 -4.98828177319267e-15 2.26765749778864e-09)
(1.18542686661333 -5.87204106536484e-15 2.09663799551679e-09)
(1.18542676940615 -3.59340579926838e-15 1.68770472081094e-09)
(1.18542670473662 -4.5322915871906e-15 7.99218591395883e-10)
(1.18542670180539 -3.40408075052538e-15 -3.1961848536915e-10)
(1.18542675201142 -3.68267566666416e-15 -1.48918263240861e-09)
(1.18542686622554 -3.78333334077802e-15 -2.51075804295599e-09)
(1.18542701671527 -3.61712826076162e-15 -3.28433558134175e-09)
(1.18542720442998 -3.20379027699674e-15 -3.74250150260151e-09)
(1.18542739603261 -3.30859956242813e-15 -3.83727674484386e-09)
(1.18542758813881 -3.34948333691023e-15 -3.60455457656993e-09)
(1.18542775131679 -3.33035481176452e-15 -1.66894814814123e-09)
(1.04242519899487 -1.44548634874739e-15 -0.00142436156875065)
(1.07475781609171 -4.66709953665124e-15 -0.000554269324138926)
(1.0920985521612 -3.52349353960623e-15 -0.000519201679036955)
(1.11462102664365 1.46549040334323e-15 -0.000410820350032842)
(1.12852762991908 2.20280624701189e-15 -0.000396263595862056)
(1.14511689999799 1.23499878188317e-14 -0.000320416826321233)
(1.15622647485951 1.15922818975321e-14 -0.000300579760121549)
(1.16804469957699 1.10915626271101e-14 -0.000236476766928545)
(1.17597383242318 7.64433723463759e-15 -0.000207537321285212)
(1.18341030294894 8.93349796081049e-15 -0.000149566803643357)
(1.18788365241453 -1.61781560115061e-14 -0.000115171648589511)
(1.19139739965949 -5.42397972883924e-15 -6.59470499698003e-05)
(1.19276180227377 6.854225188894e-15 -3.57821722823626e-05)
(1.19338236793163 4.49230812023685e-15 -4.70806813671157e-06)
(1.19292613191802 2.3618965088199e-15 8.87857091141798e-06)
(1.192307939607 5.32184408414519e-15 2.06369395067471e-05)
(1.19129218665212 2.90727225824356e-15 2.30632887799481e-05)
(1.19036176308511 1.52869890313971e-15 2.55527065680858e-05)
(1.18933280796764 5.40745997310986e-15 2.37549503377486e-05)
(1.18845554222823 2.21684952460436e-15 2.28255799847495e-05)
(1.18759359217342 5.04668585764312e-16 2.00432071613596e-05)
(1.18687599087497 1.08487999576573e-15 1.82295469420379e-05)
(1.18620705115315 -7.37695435609012e-17 1.56587442730005e-05)
(1.18565366653223 -8.30540164277413e-16 1.3892411633603e-05)
(1.18515140004779 -5.07467049649162e-16 1.18432390812969e-05)
(1.18473520503725 -4.85300638685675e-15 1.03877714486079e-05)
(1.18436283105394 -3.43201474527039e-15 8.84781261660744e-06)
(1.18405261613569 -1.95492995964633e-15 7.72203176114597e-06)
(1.18377727395223 -2.0270395698538e-15 6.59101568825689e-06)
(1.18354636415358 -2.41385678963886e-15 5.74162542023227e-06)
(1.18334237305408 -2.35418855452995e-15 4.91595559999525e-06)
(1.18317016026302 -6.50095106131932e-15 4.28027741988333e-06)
(1.18301847834776 -7.32270975801448e-15 3.67640717829274e-06)
(1.18288965607638 -5.18867007851257e-15 3.20109084592376e-06)
(1.18277642884707 -9.46548319336537e-16 2.75728741473626e-06)
(1.18267977129898 -3.3550995195554e-15 2.40126870869542e-06)
(1.1825949478113 -7.62837180413004e-15 2.07333921871212e-06)
(1.18252222637928 -5.71289170801437e-15 1.80608529691929e-06)
(1.18245848440337 -4.89904839391004e-15 1.56261331326729e-06)
(1.18240364048033 -4.6402736840651e-15 1.36162351967617e-06)
(1.18235560966545 -4.27667960301369e-15 1.18016913951002e-06)
(1.18231415652617 -3.98123094071209e-15 1.02881438693378e-06)
(1.18227787229321 -7.68507721452566e-15 8.931642061047e-07)
(1.18224647237859 -8.04612953948508e-15 7.79064973013199e-07)
(1.18221899371848 -6.09232006675203e-15 6.77381987845481e-07)
(1.18219515715642 -8.273461375771e-15 5.91245194783288e-07)
(1.18217429743329 -3.32138547977522e-15 5.14794477153941e-07)
(1.18215616535681 -7.52897558138161e-15 4.49623367387207e-07)
(1.18214029708526 -4.37670399106813e-15 3.91933133996682e-07)
(1.18212648148715 -8.50388727031861e-15 3.42455608247367e-07)
(1.18211439334265 -5.17073666842744e-15 2.98720164803995e-07)
(1.18210385808555 -5.06629378810116e-15 2.61029850068806e-07)
(1.18209464408817 -9.03436901510658e-15 2.27736700846652e-07)
(1.18208661097142 -5.63496830095935e-15 1.98924137918373e-07)
(1.18207959112846 -9.39322003046016e-15 1.73489937303626e-07)
(1.18207347280999 -6.19957638250258e-15 1.51428484667133e-07)
(1.18206813108235 -1.02852039408231e-14 1.31987725088256e-07)
(1.18206347800296 -7.90148700626278e-15 1.15101700405037e-07)
(1.18205941948017 -1.08760628524053e-14 1.00260782216362e-07)
(1.18205588588503 -8.01228247336344e-15 8.73879750601706e-08)
(1.18205280458078 -1.09559991224089e-14 7.61478035381718e-08)
(1.18205011904013 -8.58690749459151e-15 6.64088378973578e-08)
(1.18204777630099 -7.79217282202201e-15 5.79505301434827e-08)
(1.18204572928973 -6.68208156714234e-15 5.06718268385065e-08)
(1.18204393785926 -5.82450643893861e-15 4.43935955760647e-08)
(1.18204236472932 -9.53224701983655e-15 3.89353386291149e-08)
(1.18204098701537 -7.11545274973118e-15 3.41995318670626e-08)
(1.18203977235462 -9.70038608598752e-15 3.0108480308049e-08)
(1.18203870460246 -7.39298353865875e-15 2.65760821293299e-08)
(1.18203775734224 -1.02241760722717e-14 2.34938439225009e-08)
(1.18203692323159 -7.85912124189553e-15 2.0783619302127e-08)
(1.18203618143209 -7.23050057443349e-15 1.84120042111567e-08)