/*--------------------------------*- C++ -*----------------------------------*\
| =========                 |                                                 |
| \\      /  F ield         | OpenFOAM: The Open Source CFD Toolbox           |
|  \\    /   O peration     | Version:  2.3.0                                 |
|   \\  /    A nd           | Web:      www.OpenFOAM.org                      |
|    \\/     M anipulation  |                                                 |
\*---------------------------------------------------------------------------*/
FoamFile
{
    version     2.0;
    format      ascii;
    class       volVectorField;
    location    "25000";
    object      UMean;
}
// * * * * * * * * * * * * * * * * * * * * * * * * * * * * * * * * * * * * * //

dimensions      [0 1 -1 0 0 0 0];

internalField   nonuniform List<vector> 
10000
(
(1.04236673581612 -2.8521659133823e-16 -0.00029927482843554)
(1.07468698107889 9.3414148175483e-15 -0.000117852118675107)
(1.0921251422421 -1.23601760947596e-14 -0.000107972181782291)
(1.11478882445532 -5.76260250619337e-16 -8.71244252477217e-05)
(1.12896974836325 3.14721225911234e-16 -8.3165235656693e-05)
(1.14593645828564 -8.47705795064059e-15 -6.8770706872203e-05)
(1.15765009957553 2.14047874278616e-15 -6.42600160081636e-05)
(1.17023817714714 2.37726805386009e-15 -5.17921917356352e-05)
(1.1791627423668 1.80944130526238e-15 -4.58113704580253e-05)
(1.18769110166337 1.71152748760185e-15 -3.42959451953994e-05)
(1.19333716340857 -3.10875118495559e-15 -2.71180022354393e-05)
(1.19795707822593 -1.68430183052056e-15 -1.66190830749058e-05)
(1.20028010274975 3.78252907684146e-15 -9.86500672409299e-06)
(1.20159646584152 1.61491270079998e-15 -2.76558842353104e-06)
(1.20156626472477 7.23410345220486e-16 6.68905877194229e-07)
(1.20117155492481 8.90147716012314e-16 3.60017889231838e-06)
(1.20026461468081 6.5106120380533e-16 4.41535238171997e-06)
(1.19934482811406 3.93659236178361e-16 5.18823551968653e-06)
(1.19829322655008 3.50626869609245e-15 4.79119389587492e-06)
(1.1973531473309 1.12827326803811e-15 4.86888264013421e-06)
(1.1964192016334 3.2399798700146e-16 4.32226334018089e-06)
(1.1956066863593 4.10571892777813e-16 3.94489985852427e-06)
(1.19486002151644 1.17103940458901e-16 3.37984203737978e-06)
(1.1942548570585 -9.69499220367875e-17 3.00468232962045e-06)
(1.19371106357383 -1.04080161070379e-16 2.49429691108292e-06)
(1.19325011684421 -1.31465321220919e-14 2.28852493640701e-06)
(1.19283037328925 -1.6966645544969e-15 1.92086349120339e-06)
(1.19246385513154 -5.46963430013883e-16 1.81544832114248e-06)
(1.19213282665735 -4.04974206052235e-16 1.49024042588742e-06)
(1.19184541514796 -4.60265521667774e-16 1.42221129681192e-06)
(1.19159303442223 -4.91446962589811e-16 1.0829443220211e-06)
(1.19137916761738 -1.20437094133778e-14 1.14501490376369e-06)
(1.19118782209939 -2.08545230757498e-15 7.8057061359641e-07)
(1.19103281269615 -1.12346974603637e-15 8.54392181374968e-07)
(1.19090286054538 1.72977833963438e-15 6.6312600656488e-07)
(1.1907804956503 -1.16665471937629e-16 6.10572112838843e-07)
(1.19068429148259 -1.13706713660373e-14 4.27098761030468e-07)
(1.19060008590749 -1.88326419014749e-15 4.65273714841419e-07)
(1.19053828081376 -1.06985721347248e-15 2.57955711365739e-07)
(1.19048245118288 -9.26902170808752e-16 1.97455309571128e-07)
(1.19045344785915 -8.72624476494633e-16 1.31488252862866e-07)
(1.19042526932044 -8.07234200018895e-16 6.18825531744184e-08)
(1.19042523560892 -1.06035405108687e-14 5.74281693643335e-09)
(1.19043051991382 -2.26430036295487e-15 3.99091316972761e-08)
(1.19044235784526 -1.36372286777661e-15 -5.27106218761405e-08)
(1.19045857928273 -1.57626987335178e-15 -5.5712527875565e-08)
(1.1904714847619 7.55548687854807e-16 -7.81512897008058e-08)
(1.19047487431345 -1.04930179985431e-15 1.64840805973362e-07)
(1.19046165380872 5.99225590743444e-16 -3.93490277001286e-08)
(1.19044987499055 -1.28897999935473e-15 1.21443757466992e-07)
(1.19042688726918 3.32923299815935e-16 9.55155167299904e-08)
(1.19039186094549 -7.65509707392842e-16 2.76563023475466e-07)
(1.19034937895012 -1.60698085494429e-15 2.16440038650797e-07)
(1.19030501583802 1.46598562427449e-16 3.30360779835606e-07)
(1.1902612354375 -1.49110358742515e-15 2.8567035769936e-07)
(1.19020858050779 -6.85074340831541e-18 2.86296034798351e-07)
(1.19016407439044 -1.65610894315764e-15 1.72982254789128e-07)
(1.19010686415122 -2.28366847823022e-16 3.41535791739948e-07)
(1.19009216690568 -1.76561545507473e-15 1.76205350840239e-07)
(1.1900568785838 -3.86395325637479e-16 7.79964013390984e-08)
(1.19004503239092 -1.79227570987645e-15 2.278330680809e-08)
(1.19003680309667 -4.59126027640233e-16 1.04258539751806e-07)
(1.19005750487878 -1.29713446935904e-15 -1.91827400465759e-07)
(1.19007558605892 -1.84342209278904e-16 -5.4576183577399e-08)
(1.19008192608398 1.47227550323288e-16 -8.55617139221047e-08)
(1.19007248714642 -1.44923753437382e-15 1.61294270012731e-07)
(1.19007411772137 -4.17605717708804e-16 6.63636093834979e-08)
(1.19005385722165 -1.60647778206404e-15 1.99257653154955e-07)
(1.19002342270663 -5.41639789292791e-16 1.14761827328092e-07)
(1.1899647955887 -1.68595625979754e-15 1.81260476581047e-07)
(1.18994484114313 -7.20032945179953e-16 -4.48039508131537e-08)
(1.18994678051925 -3.96122932194399e-16 -5.42587960448487e-08)
(1.18993167432543 -2.59425976265067e-16 1.47088656468452e-07)
(1.18990427319443 -1.11665398740077e-15 7.04685801735987e-08)
(1.18990632910422 -1.6525463442023e-15 -1.01033267337507e-07)
(1.18992569033191 -7.63191476721699e-16 -8.7090029512085e-08)
(1.1899410996589 -1.61993738127455e-15 -1.24673921921676e-07)
(1.18996166347703 -8.1988507929663e-16 1.32579021094737e-08)
(1.18998254295899 -5.33507246958833e-16 -7.37084102000558e-08)
(1.18999277454058 -4.77825699602853e-16 -8.51525573028281e-09)
(1.19000336131885 -1.41130143997276e-15 -2.28183400751905e-08)
(1.19000561535751 -8.55089304789354e-16 5.84901906471533e-08)
(1.19000437009175 -1.52134296802883e-15 8.3806070735748e-09)
(1.19000002981913 -9.56221573490703e-16 2.05176529756644e-08)
(1.19000011729904 -1.50620596886409e-15 5.90997071297609e-09)
(1.19000220483697 4.43868578419254e-16 -6.58104313125312e-09)
(1.19001801441553 -7.57749569835197e-16 7.56739362078682e-10)
(1.19002278712839 -1.30868820166716e-15 -2.54023431374806e-08)
(1.19004071056082 -9.11634816621585e-16 -4.87707850926666e-08)
(1.1900462254109 -1.27759837340999e-15 -4.45230919680803e-08)
(1.19005512688753 -1.91695875696729e-15 3.01163831737039e-08)
(1.19007169152127 -1.01040471499808e-15 -1.18102596825029e-08)
(1.19009700726106 -5.57196346314405e-16 -6.88191017464631e-08)
(1.19011458338149 -7.53525234558153e-16 -1.52124424299227e-08)
(1.190120920791 -1.10561752267357e-16 -3.6632995508135e-08)
(1.19014493155663 -7.52772199827657e-16 -1.70069876641204e-08)
(1.19012559491067 -1.05100775124336e-15 8.03526714268638e-08)
(1.19013356831635 -7.20689117943419e-16 4.7749175314465e-08)
(1.19014698452783 -5.30921240383246e-16 2.74564759377986e-08)
(1.19011913022106 -7.05668925688393e-16 3.38013329907319e-07)
(1.04235057508873 -5.82949554350744e-16 -0.00051120047319411)
(1.07464448662962 4.23737741894221e-15 -0.000199002429121453)
(1.09204476160995 -9.51824337066673e-15 -0.000184010566514607)
(1.11466548971984 -7.40996979119439e-16 -0.000147876834229295)
(1.12879500832167 7.01735798136069e-16 -0.000141786322261715)
(1.14570491601181 8.64513156576765e-16 -0.000116723555488436)
(1.15733884075399 4.52073734730082e-15 -0.000109454803042169)
(1.16983913540899 4.71299670442227e-15 -8.78086244273522e-05)
(1.17865539241384 3.60940744738842e-15 -7.77908197514142e-05)
(1.18706950589201 3.45376393941355e-15 -5.80095428770541e-05)
(1.19259168464533 -6.59117090798911e-15 -4.59032064340405e-05)
(1.19709554932973 -3.3837284745559e-15 -2.79554258897203e-05)
(1.19932332294174 7.97061279802311e-15 -1.65928555556293e-05)
(1.20057323652619 3.19527875478415e-15 -4.47058364169812e-06)
(1.20050491883149 1.4316228016982e-15 1.27970645003692e-06)
(1.20009666699721 1.8200129547267e-15 6.20934615794665e-06)
(1.19919170532423 1.31622540150185e-15 7.56067702301989e-06)
(1.19828232715275 7.90575077075385e-16 8.79695702038558e-06)
(1.19723872413464 7.28900857584355e-15 8.18904543480608e-06)
(1.19631366964367 2.21220186443092e-15 8.28565775533554e-06)
(1.19538820337565 6.292490795933e-16 7.3542655407534e-06)
(1.19459309835389 8.41708673373391e-16 6.66502025581615e-06)
(1.19386466553105 2.24314944896397e-16 5.71686408949085e-06)
(1.19327516679465 -2.09783703466655e-16 5.04518344516461e-06)
(1.19273740852793 -2.23748902046975e-16 4.19173913753544e-06)
(1.19228187179569 -1.21264785257439e-14 3.86050559060638e-06)
(1.19186301133855 -2.97717108421754e-15 3.26734095859582e-06)
(1.19150072505461 -1.07164284890902e-15 3.09728041085304e-06)
(1.19117051611464 -8.29462553305464e-16 2.51682292008854e-06)
(1.19088721482343 -9.46939535994357e-16 2.40825603398686e-06)
(1.19063555727512 -1.01542943402888e-15 1.85747445231667e-06)
(1.19042354715746 -1.15105738203404e-14 1.93817492597394e-06)
(1.19023380255481 -4.15651105799483e-15 1.35856141745304e-06)
(1.19008184696141 -2.41424227209829e-15 1.42810779335425e-06)
(1.18995454767082 3.56790093580035e-15 1.14059004088953e-06)
(1.18983620489743 -3.50582849778586e-16 1.04627102702175e-06)
(1.18974081652566 -1.1136412510791e-14 8.06961369286228e-07)
(1.18965630829485 -3.60088238258221e-15 8.1409491153744e-07)
(1.18960141084355 -2.20334188034242e-15 4.68282703056055e-07)
(1.18954332819752 -1.90544164330566e-15 3.57235738794147e-07)
(1.18951169813782 -1.79013071239406e-15 2.34093472056015e-07)
(1.18948711201602 -1.65865363386813e-15 1.21032183589051e-07)
(1.18949043816674 -1.04958280465705e-14 -1.61851002473935e-08)
(1.18950212084212 -4.29919322261859e-15 3.60482476519681e-08)
(1.18951628992142 -2.75840763045764e-15 -7.48249034867601e-08)
(1.18953011527686 -3.2151460044662e-15 -1.02514619863358e-07)
(1.18954066989379 1.64089600920372e-15 -1.32330055777173e-07)
(1.1895430737926 -2.20478621196263e-15 2.21389248656436e-07)
(1.18952980727181 1.2877116668768e-15 -6.8713747521337e-08)
(1.18951810522339 -2.70018855680718e-15 1.73611833049197e-07)
(1.18949377228117 7.37636977242186e-16 1.36453095592865e-07)
(1.18945993332863 -1.60778545663718e-15 4.51900864583792e-07)
(1.18941635950094 -3.31963780552456e-15 3.70249110245952e-07)
(1.18937244104538 3.60282142629962e-16 5.54607735329073e-07)
(1.18933036538201 -3.10910320975824e-15 4.71025560769726e-07)
(1.18928297579078 3.5523857616752e-17 4.63684824275533e-07)
(1.18923442457845 -3.45188158240436e-15 3.21722562708459e-07)
(1.18918243452674 -4.19913598004163e-16 5.68285931620595e-07)
(1.1891645657051 -3.66582941875458e-15 3.147879206075e-07)
(1.18913016780696 -7.40653170630097e-16 1.1985069310611e-07)
(1.18911805878735 -3.71676501817628e-15 4.15833403819611e-08)
(1.18911217895957 -8.90788123348567e-16 1.40870917984317e-07)
(1.18913067357293 -2.68619309951404e-15 -3.39691976449023e-07)
(1.18914997932464 -3.3792998250647e-16 -5.67358451480817e-08)
(1.18915481785334 3.13092636543457e-16 -6.12618134268669e-08)
(1.18915130452282 -3.02152044464752e-15 2.94881687729388e-07)
(1.18915594072858 -8.20143562386497e-16 1.26919100175655e-07)
(1.18914328076964 -3.33198535736754e-15 3.21013734937941e-07)
(1.18911373636757 -1.07442287088992e-15 1.93749060247437e-07)
(1.18905969325199 -3.49055991713898e-15 2.92310762000743e-07)
(1.18903198793891 -1.43760974989318e-15 -1.58728059664513e-08)
(1.1890309959327 -7.95999956518917e-16 -7.07396497290283e-08)
(1.18901252584927 -5.24917005484704e-16 2.65511265311737e-07)
(1.18898746938251 -2.31220237930535e-15 9.99845098931666e-08)
(1.18898664158244 -3.39768146398607e-15 -1.60585767821587e-07)
(1.1890044268548 -1.52777655157644e-15 -1.64522738167627e-07)
(1.18901644400758 -3.34344366566716e-15 -2.06606831277485e-07)
(1.18903700618914 -1.64768698341636e-15 -2.26236542389945e-08)
(1.18905803754119 -1.08133537775216e-15 -1.13524285479694e-07)
(1.18906852478826 -9.75497830091911e-16 1.36442149160383e-09)
(1.18907719033362 -2.91936419052372e-15 8.04878490592718e-10)
(1.18908082430936 -1.72768434493929e-15 1.03780056505436e-07)
(1.18907654044024 -3.13428371619456e-15 5.48486985506349e-08)
(1.18907057854145 -1.93357249211523e-15 4.16651979846842e-08)
(1.18906742023829 -3.09169489480967e-15 -1.71742293970835e-08)
(1.18907486935526 -1.95355599170673e-15 -2.93978095507032e-08)
(1.18908930984154 -1.64893525312334e-15 -2.2720108382185e-08)
(1.18909576682214 -2.70872847102442e-15 -4.65724833763261e-08)
(1.18911606802986 -1.85444107130697e-15 -6.12224532804063e-08)
(1.18912177980576 -2.63401966300412e-15 -3.73029143875555e-08)
(1.18913449268169 -2.0668640271543e-15 7.99780510863468e-08)
(1.18915397093443 -2.07094749690783e-15 -4.53631375733295e-08)
(1.18918019920661 -1.145252817682e-15 -1.25367817093978e-07)
(1.18919992594902 -1.54986251630148e-15 -1.01399891278524e-08)
(1.18920219429212 -1.28302969577812e-15 -5.49845510603119e-08)
(1.1892265476248 -1.55757179967603e-15 -5.54657408509212e-08)
(1.18921078744618 -1.45390655131217e-15 1.43036827035037e-07)
(1.18922395259374 -1.44514788949545e-15 4.43456732524786e-08)
(1.18922739607163 -1.37336124281091e-15 7.49452719150975e-08)
(1.18921074480296 -1.45534916500139e-15 4.477986821375e-07)
(1.04231554054374 -8.71993062413368e-16 -0.000823103665019974)
(1.07455265161324 2.88827527178007e-16 -0.000318602682969651)
(1.0918721684599 -8.20446598707039e-15 -0.000296772034547005)
(1.11440277279385 -3.93229163060628e-16 -0.00023680764538922)
(1.12842396866663 1.138815289364e-15 -0.000228388225107384)
(1.14521109175887 8.76353685368796e-15 -0.000186635837627957)
(1.15668445014799 6.97449599977539e-15 -0.000175695115061701)
(1.16899758931643 6.84486835097215e-15 -0.000139958457742626)
(1.17758777235201 5.12480388781485e-15 -0.000124160904557764)
(1.18576195895162 4.99898560980853e-15 -9.19020849424132e-05)
(1.19103412478985 -1.06653944775401e-14 -7.24848141981698e-05)
(1.19530845206513 -4.64710611555525e-15 -4.37001145331229e-05)
(1.19734224067857 1.27873185345267e-14 -2.57599750121361e-05)
(1.19845785677872 4.20575573065177e-15 -6.62419612499693e-06)
(1.19831831252527 1.91054822707966e-15 2.36574670622739e-06)
(1.19788718179617 2.68400913820663e-15 1.00668071637948e-05)
(1.19698179426912 1.87022009020927e-15 1.21718879918446e-05)
(1.19609115591199 1.10145837925133e-15 1.38730602537997e-05)
(1.19506831159278 1.12529265649056e-14 1.31319449891094e-05)
(1.1941714323821 2.81063292985691e-15 1.31905064668906e-05)
(1.19327164853727 7.78090062306666e-16 1.16840612929159e-05)
(1.19251349131461 1.24015463802881e-15 1.04946873914193e-05)
(1.19181794007479 2.6388630447486e-16 9.06756899796689e-06)
(1.19124892971645 -3.53535490675549e-16 7.90295899000354e-06)
(1.19072143557531 -3.41173327667593e-16 6.75289942658004e-06)
(1.19027391093122 -1.26988517871267e-14 6.11480184009284e-06)
(1.18986095435018 -3.50126785385207e-15 5.26310526925976e-06)
(1.18950835707786 -1.41348707386241e-15 4.86891594389923e-06)
(1.18918545105913 -1.19671377303191e-15 4.04411492402532e-06)
(1.18891097291701 -1.39830864174411e-15 3.73856541785444e-06)
(1.18866568987628 -1.49537546433947e-15 3.01566696121004e-06)
(1.18845908302184 -1.2218272326905e-14 2.89116946977367e-06)
(1.18827563752895 -5.37755822880624e-15 2.25136950844244e-06)
(1.18812818392724 -3.40067240469751e-15 2.0859863788187e-06)
(1.18800402120367 5.71350237528067e-15 1.78003020259614e-06)
(1.18789344901185 -8.50071402361934e-16 1.5444183635301e-06)
(1.18780028467764 -1.21693997963585e-14 1.31995659553467e-06)
(1.18771866348284 -4.58762523013453e-15 1.24387316706088e-06)
(1.18766593670338 -3.11332497435547e-15 7.77108916026563e-07)
(1.1876065971578 -2.77703212066464e-15 6.07131603071372e-07)
(1.18757565077345 -2.61985665699437e-15 4.03673976897427e-07)
(1.18756008168915 -2.42487111667862e-15 2.01094732687184e-07)
(1.18756508815278 -1.1539620504576e-14 -3.98442634028689e-08)
(1.18758867929352 -5.68069898065207e-15 -4.63572656402207e-08)
(1.18760185529854 -3.88471652541603e-15 -7.89278546529202e-08)
(1.18761467036275 -4.7285924072923e-15 -2.04054550280364e-07)
(1.18761992448162 2.82908376835924e-15 -1.41170423636585e-07)
(1.18762065752934 -3.50489060392495e-15 1.60959436842822e-07)
(1.18761022942789 2.18130586361741e-15 -2.22938679620389e-08)
(1.18759844279155 -4.24660024415839e-15 1.57160168079651e-07)
(1.18757392042306 1.3557637431171e-15 2.28850183403303e-07)
(1.1875400625918 -2.53954185772547e-15 5.95914669366261e-07)
(1.1874963056875 -5.0025055068507e-15 5.73565792783303e-07)
(1.18745316881765 8.17794011065586e-16 7.4156959726368e-07)
(1.18741197400445 -4.8222654821832e-15 7.28460440797671e-07)
(1.18736579298263 2.94943692320026e-16 6.9595800576378e-07)
(1.18731757266988 -5.3445083567439e-15 5.72705724456537e-07)
(1.18727138263453 -4.01050830314213e-16 8.5123789141495e-07)
(1.18724723210005 -5.6195945429143e-15 5.01734349718265e-07)
(1.1872176591843 -8.69397705274419e-16 1.36326138344583e-07)
(1.18720826734531 -5.67754747832304e-15 6.60083585240455e-08)
(1.18720717502263 -1.0808263594789e-15 1.02672617694515e-07)
(1.18722396478186 -4.07899800506513e-15 -4.84240015727643e-07)
(1.18724590414255 -3.13092552946822e-16 -1.27317658651203e-07)
(1.18725119397506 5.11415638326996e-16 4.32464355158394e-08)
(1.18725455298909 -4.69464703210747e-15 3.75341897021736e-07)
(1.18726501453229 -1.03235591709568e-15 2.03209236600893e-07)
(1.18725950722114 -5.09155716797849e-15 4.19751248241374e-07)
(1.18722886460619 -1.40501443387352e-15 3.94283978070035e-07)
(1.1871831644977 -5.30513375160965e-15 3.82003781515773e-07)
(1.18714976855984 -1.94275149773769e-15 1.05158667983229e-07)
(1.18713973746873 -1.12016177446737e-15 -6.34006909036558e-08)
(1.18711589111502 -7.38455076911736e-16 5.06251390122402e-07)
(1.18709139745451 -3.520746386353e-15 1.06165142041455e-07)
(1.18708835981632 -5.06041108402166e-15 -1.95185094079582e-07)
(1.18710424736992 -2.09303090828916e-15 -3.19670738831731e-07)
(1.18711264495352 -5.03794927680677e-15 -2.64715358969277e-07)
(1.1871308913918 -2.28034675375565e-15 -1.98744564966326e-07)
(1.18714977717496 -1.53664392906809e-15 -1.64202048989435e-07)
(1.18716041661753 -1.41826778114022e-15 -6.4997353360913e-08)
(1.18716521385288 -4.43022024282181e-15 -1.1555695956657e-08)
(1.18716598360452 -2.43283300425104e-15 1.61665873207429e-07)
(1.18715433266365 -4.69879556024205e-15 1.52115167686076e-07)
(1.18714902664693 -2.73389740463324e-15 4.29289561423317e-08)
(1.18715244418564 -4.61409760595665e-15 3.31982682078548e-09)
(1.18716622353327 -3.91546369224071e-15 -7.30302210322295e-08)
(1.18717769990723 -2.424555297007e-15 -9.74023464178177e-08)
(1.18719119325959 -4.05455101261299e-15 -1.21891877614517e-07)
(1.18721508673327 -2.64997523277593e-15 -1.97705499931705e-07)
(1.18722496515577 -3.92187621841689e-15 -6.95348402614671e-08)
(1.18724011308652 -2.23093693777984e-15 1.36339598032225e-07)
(1.18726144044291 -3.01534957356214e-15 -1.5076619677106e-07)
(1.1872875246119 -1.60693075338789e-15 -3.32071209383791e-07)
(1.18731017622613 -2.30488069931695e-15 -8.17090853417812e-08)
(1.18731399744976 -2.29983147252124e-15 -1.16282889758674e-07)
(1.18733257826786 -2.32129283960901e-15 -1.2514826807958e-07)
(1.18731830010905 -1.84437418690956e-15 2.19973369062488e-07)
(1.18733116742253 -2.10380541060008e-15 9.68159889839368e-08)
(1.18732460275087 -2.12106322960395e-15 1.91482901968257e-07)
(1.18731079429609 -2.14100968194592e-15 5.70233110424522e-07)
(1.0422653406575 -1.19914847108995e-15 -0.00113002117912553)
(1.07441798961814 -2.43295730770778e-15 -0.000435797177695363)
(1.09161894366341 -8.51783438414644e-15 -0.000407002984296486)
(1.11401780655647 3.20065654765697e-16 -0.000323668746075372)
(1.12787870888389 1.64863407647097e-15 -0.000312795897516801)
(1.14447988755405 6.3599646417001e-15 -0.000254124054768449)
(1.15572186027472 9.19232401374468e-15 -0.000239251523255459)
(1.16776004453177 8.97125708564995e-15 -0.000189260787991176)
(1.17602735644401 6.50056223005519e-15 -0.000167705315204682)
(1.18386434422612 6.53228384025395e-15 -0.000123136262630476)
(1.18878726290368 -1.60931216251881e-14 -9.64360393071143e-05)
(1.19274191698713 -5.37503684250854e-15 -5.72362907356653e-05)
(1.19451191182702 8.54108952284416e-15 -3.32369154832394e-05)
(1.19544852338118 4.4665188888578e-15 -7.83983982343826e-06)
(1.19521834854362 2.20070902552148e-15 3.86271426278765e-06)
(1.19475914085182 3.60423822394102e-15 1.39394719779816e-05)
(1.19385594408024 2.35986128413719e-15 1.65982304721362e-05)
(1.19299059486281 1.35700211443273e-15 1.87857401768801e-05)
(1.19199930680655 7.37693002707137e-15 1.77404497616612e-05)
(1.19114474136655 2.73273551583417e-15 1.77196980198983e-05)
(1.19028971458013 7.50141838016965e-16 1.56115645320994e-05)
(1.18957781196069 1.65166316436379e-15 1.40003942598484e-05)
(1.18891188724225 2.23349682938282e-16 1.2146745797425e-05)
(1.18836414699832 -5.47641522369024e-16 1.05318159599326e-05)
(1.18785222461341 -4.66995059591027e-16 9.20413756318253e-06)
(1.18741780151683 -7.81644798830699e-15 8.24899824739658e-06)
(1.1870171088988 -3.46332198597139e-15 7.15925063957926e-06)
(1.18667883233725 -1.62634765201482e-15 6.45684293719292e-06)
(1.18637074289997 -1.55581235477105e-15 5.46951723940055e-06)
(1.18610853441691 -1.86833956090788e-15 4.94160898190453e-06)
(1.18587488052554 -1.99014249844919e-15 4.08925961813759e-06)
(1.18567646662434 -8.01990041801461e-15 3.73850299405334e-06)
(1.1855014339966 -6.25754664690128e-15 3.06330643565516e-06)
(1.18536071119899 -4.28913913729113e-15 2.61136190473992e-06)
(1.18524121464341 2.0414794597514e-15 2.28906702617752e-06)
(1.185136135267 -1.80667337368836e-15 1.9539352355077e-06)
(1.18504741752005 -8.75381055051428e-15 1.66652724352512e-06)
(1.18497918290086 -5.14464286212651e-15 1.55377444084331e-06)
(1.1849277032781 -3.95874776667113e-15 1.05726094710137e-06)
(1.18487228936231 -3.64393009213286e-15 8.21597401434296e-07)
(1.18484044961567 -3.45003764428094e-15 4.54954117864544e-07)
(1.18483028955399 -3.18776501194449e-15 1.84881435878276e-07)
(1.18483557018705 -8.44164878164149e-15 -1.16343424891249e-07)
(1.18486536740368 -6.71178641446221e-15 -1.29996507253956e-07)
(1.18487871989849 -4.89328674861801e-15 -1.15285902823791e-07)
(1.1848964673596 -6.29305709591767e-15 -3.02886815681838e-07)
(1.18489652176068 -6.88110338051907e-16 -1.76159526414756e-07)
(1.18489680549529 -5.28862644686916e-15 3.79610303546228e-08)
(1.18488686279258 -1.54173795276609e-15 2.85512857476691e-08)
(1.18487408041718 -6.28889229230969e-15 3.49202804417704e-08)
(1.18485177193604 -2.44304209255446e-15 3.1915270276757e-07)
(1.18481793521663 -3.76086094430019e-15 6.95730170518708e-07)
(1.18477543644096 -6.85389907807073e-15 7.42842356390467e-07)
(1.18473363512099 -2.82643996607367e-15 8.68386756314882e-07)
(1.18469326334023 -6.946631220723e-15 9.44775881689078e-07)
(1.18464761742743 -3.35966456428619e-15 8.90496393723913e-07)
(1.18460295513198 -7.58329145572375e-15 7.79750909190478e-07)
(1.18456063263459 -4.08754925719901e-15 1.09385643548357e-06)
(1.18453278512677 -7.91951409257209e-15 6.16487403907143e-07)
(1.18451138510932 -4.50908129709652e-15 1.32625619405836e-07)
(1.1845057766513 -7.95136916405822e-15 8.00837223957549e-08)
(1.18451136688738 -4.66685707649566e-15 6.59542454986784e-08)
(1.18452775604156 -5.66769191854597e-15 -5.7347745517589e-07)
(1.18454950479958 -3.52013161082287e-15 -1.86576756245278e-07)
(1.18455699117017 -2.69010002712697e-15 6.89569186187037e-08)
(1.18456589744538 -6.72634319302897e-15 2.2955520617484e-07)
(1.18457907507497 -4.211833624318e-15 1.89598393277079e-07)
(1.18457411617072 -7.12004084139723e-15 4.65843160211031e-07)
(1.18454732827871 -4.50747212610742e-15 5.87513630686158e-07)
(1.18451203139374 -7.38030370154615e-15 4.1100438309444e-07)
(1.18446623962913 -5.05083498234716e-15 2.50732045411564e-07)
(1.1844518120208 -4.13792356520956e-15 -1.15006822224213e-08)
(1.18442446803636 -3.6020999454069e-15 7.63427846460014e-07)
(1.18439700983269 -4.94145713397398e-15 1.07514774806045e-07)
(1.18439415703035 -6.83018737375042e-15 -2.30990352970713e-07)
(1.18440728472296 -4.82604009361535e-15 -4.50141500238862e-07)
(1.18441323526085 -6.94307421807117e-15 -2.9838873592217e-07)
(1.18442751491753 -4.89123133464132e-15 -3.99929717578788e-07)
(1.18444218573514 -4.01566170079577e-15 -2.43911723767322e-07)
(1.1844502524305 -3.83338796249076e-15 -1.198961695851e-07)
(1.18444942951628 -6.14713395349418e-15 -3.27099920422921e-08)
(1.18444247494853 -4.79730379501198e-15 2.97553879174666e-07)
(1.18443751004899 -6.42806118214293e-15 2.2690795578625e-07)
(1.18443868606524 -5.00535178975603e-15 -1.79288861381702e-08)
(1.18444705149775 -6.27489729624791e-15 -2.58361703663421e-09)
(1.18446329284197 -5.60876552498828e-15 -1.35317097460447e-07)
(1.18447439023637 -4.37980372939031e-15 -1.95089717509751e-07)
(1.18449263244374 -5.51543542352029e-15 -2.6177432456408e-07)
(1.18451768674556 -4.4622677896479e-15 -4.08264714366164e-07)
(1.18453219158612 -5.3022505028422e-15 -1.97338779786999e-07)
(1.1845461961052 -3.34872821948572e-15 1.28602261850901e-07)
(1.18456564983724 -4.03394130471328e-15 -1.88827940956055e-07)
(1.18458887354441 -2.7013707374875e-15 -5.18559364283321e-07)
(1.18461289650382 -3.11198178637691e-15 -1.25535405124476e-07)
(1.18461276818868 -3.23115153652291e-15 -1.17416756588794e-07)
(1.18462914477909 -3.07542927953797e-15 -1.29528902971876e-07)
(1.18461482883529 -2.59499271524677e-15 2.94444026991702e-07)
(1.18462723882782 -2.78954139422096e-15 2.20217334362417e-07)
(1.18461251082515 -2.84887747255086e-15 3.61108526799579e-07)
(1.18459966969878 -2.82677816744931e-15 6.98660989576242e-07)
(1.04219824957971 -1.56637108547504e-15 -0.00141725690676612)
(1.07424248968522 -4.68423150189227e-15 -0.000545746802464294)
(1.09128832063579 -3.40483863283399e-15 -0.000508965419807535)
(1.113516711054 1.44772983297386e-15 -0.000404684524129711)
(1.12716854469856 2.20633355691826e-15 -0.000390155229009914)
(1.1435282412911 1.2381260272229e-14 -0.000316049229577388)
(1.15446675135063 1.1594137827351e-14 -0.00029655272035586)
(1.16614942524578 1.1030571539985e-14 -0.000233224141555659)
(1.17400616159688 7.65301209210471e-15 -0.000205516465708258)
(1.18141394019452 8.03657854915872e-15 -0.000149608020242287)
(1.18591008318996 -1.49584173980728e-14 -0.000115917956983202)
(1.18947934716167 -5.17922659541054e-15 -6.75369752625445e-05)
(1.1909421128432 7.15491605948753e-15 -3.82517707867038e-05)
(1.19168032696159 4.5362523588711e-15 -7.81272600795406e-06)
(1.19135195784542 2.3377578678936e-15 5.83071759067391e-06)
(1.19086192954708 4.61813942768565e-15 1.76433874659702e-05)
(1.18996577778304 2.75258394291152e-15 2.06004289368381e-05)
(1.18913339778764 1.53850272818353e-15 2.33024216125695e-05)
(1.18818298416071 5.4021252580184e-15 2.17270783746867e-05)
(1.18737746364945 2.45642148862713e-15 2.14789994374685e-05)
(1.18657740482572 6.16992095997311e-16 1.8969488353423e-05)
(1.18590715918418 2.13073127016374e-15 1.70962277589213e-05)
(1.18527333547705 9.32134098385278e-17 1.48991192797946e-05)
(1.18475120831225 -7.87481406613593e-16 1.28778869801076e-05)
(1.18426224622623 -5.84122937923845e-16 1.14313804707347e-05)
(1.18384775633361 -5.18257793051913e-15 1.01842886412212e-05)
(1.18346570066091 -3.2928954909751e-15 8.90475979830052e-06)
(1.18314581335932 -1.73757220622149e-15 7.88189428581442e-06)
(1.18285556263425 -1.91112445153813e-15 6.79711152645385e-06)
(1.182607651768 -2.35219751001215e-15 6.04807918083902e-06)
(1.18238796378773 -2.4834867276302e-15 5.10818295554487e-06)
(1.18220080843533 -5.76231642535875e-15 4.56767878505269e-06)
(1.18203628688555 -7.1055614984722e-15 3.8426881606754e-06)
(1.18190356991564 -5.03066687939291e-15 3.14289386328998e-06)
(1.18179141262275 -1.04731008752903e-16 2.84942932764959e-06)
(1.18169400874267 -2.92727397866969e-15 2.3609934167724e-06)
(1.18161167968943 -7.20879312583787e-15 1.94452214210786e-06)
(1.18155463358811 -5.56222010156467e-15 1.68060802393406e-06)
(1.18151008327336 -4.71540796899229e-15 1.28899684269982e-06)
(1.18146223716286 -4.46970177803726e-15 9.62753158766535e-07)
(1.18143273830695 -4.25055493649789e-15 5.02534692308443e-07)
(1.18142529206221 -3.91757891141125e-15 8.96164580062382e-08)
(1.18143091705665 -7.00782993030118e-15 -1.70973036263545e-07)
(1.18146227671488 -7.73085755751714e-15 -2.75232299398421e-07)
(1.18147622505424 -5.78364025514175e-15 -1.0455297543624e-07)
(1.18149522401266 -7.91929924626341e-15 -3.43315690023069e-07)
(1.18149257465275 -2.92436574955446e-15 -1.18800714406111e-07)
(1.18149158592268 -7.26123446408823e-15 3.87567976712176e-08)
(1.18148064917487 -4.12996461867183e-15 1.43208927741163e-07)
(1.18146732847702 -8.51993925017429e-15 -2.00572551628251e-08)
(1.18144745604564 -5.13754560811431e-15 4.91750374893275e-07)
(1.18141501753268 -4.98670919376038e-15 8.64962143973907e-07)
(1.18137502464674 -8.86163607579708e-15 1.01302490793139e-06)
(1.18133538533096 -5.412563653229e-15 1.0573022523945e-06)
(1.18129843825461 -9.23647560908361e-15 1.24444501554564e-06)
(1.181257319779 -6.02772654786391e-15 1.11707005932696e-06)
(1.18121508473757 -1.00191817269211e-14 9.68365087583825e-07)
(1.18117618469814 -6.83736774047447e-15 1.23649246857968e-06)
(1.18115181752844 -1.03719531078942e-14 6.95215145796461e-07)
(1.18113571169131 -7.24667139304085e-15 1.24191653074275e-07)
(1.18113694971069 -1.03603705270004e-14 7.28012758073076e-08)
(1.18114561637836 -7.36460008297722e-15 -1.06303843350271e-08)
(1.18116171059397 -7.25086610177783e-15 -5.35473495008801e-07)
(1.18118243101512 -5.95585585367386e-15 -2.15503175730303e-07)
(1.18118972841033 -5.17054923744e-15 2.86648710487298e-08)
(1.18120143487202 -8.92656740167276e-15 -3.4754809458906e-08)
(1.18121569358527 -6.64424152423889e-15 1.94963792041217e-07)
(1.18121197693349 -9.26274781115899e-15 4.2061853840648e-07)
(1.18118653228831 -6.90134410078288e-15 6.36297956260325e-07)
(1.18115472067056 -9.57229174954908e-15 4.66515686394595e-07)
(1.18109678881348 -7.4873474184294e-15 4.56478738802143e-07)