/*--------------------------------*- C++ -*----------------------------------*\
| =========                 |                                                 |
| \\      /  F ield         | OpenFOAM: The Open Source CFD Toolbox           |
|  \\    /   O peration     | Version:  2.3.0                                 |
|   \\  /    A nd           | Web:      www.OpenFOAM.org                      |
|    \\/     M anipulation  |                                                 |
\*---------------------------------------------------------------------------*/
FoamFile
{
    version     2.0;
    format      ascii;
    class       volSymmTensorField;
    location    "25000";
    object      UPrime2Mean;
}
// * * * * * * * * * * * * * * * * * * * * * * * * * * * * * * * * * * * * * //

dimensions      [0 2 -2 0 0 0 0];

internalField   nonuniform List<symmTensor> 
10000
(
(4.27240942868501e-06 -1.15522365178995e-19 -2.26738722061584e-08 5.77807620233927e-33 7.04591448063201e-22 1.0666416194892e-08)
(2.27689510381435e-05 2.80457794291764e-17 -1.0328736912651e-07 1.7828134651273e-27 2.15447573923384e-18 9.52489850248391e-09)
(5.57099748732526e-05 6.61108934146614e-18 -8.99975611891763e-08 2.40083598438914e-28 -5.9471282877489e-20 5.640074426485e-09)
(9.95400404095736e-05 -2.30847809286886e-17 6.77483382367533e-09 7.76003311564787e-29 -9.28599483874194e-20 3.44980091440319e-09)
(0.000149903698628995 -1.27436311572581e-17 2.11041034429125e-08 2.4127538814316e-29 -3.01612353089062e-20 3.83623151509952e-09)
(0.00021493223636404 -1.13273253307244e-16 -3.8198679873445e-08 1.87835027865788e-27 -7.08808866525014e-19 1.64713075668164e-09)
(0.000254506086985851 -6.18303417035053e-17 -2.23823013606662e-07 3.22408778385278e-28 -2.62423647125034e-19 1.60764618916305e-09)
(0.000295476764619718 -3.8647688459428e-17 -2.56225005064296e-07 9.55985917853442e-29 -6.93423986893581e-21 1.13774656101185e-09)
(0.000333349929971138 -1.23256365076504e-17 -7.65035527144225e-08 2.30900044533471e-29 -1.34218166984587e-20 3.18257916271394e-10)
(0.000364763664819856 -9.97256302467136e-18 -2.50520188424405e-09 8.30184109876044e-30 -1.22858639623273e-20 3.07859571590053e-10)
(0.000384472762333887 -1.71178633987813e-17 -6.76506271196899e-08 4.80659086720642e-30 -1.48086648628193e-20 3.39000596097737e-10)
(0.000389207438756145 -1.33047923512042e-17 -1.07729233072071e-07 2.52573714125461e-30 1.00629458411961e-20 3.5915239351378e-10)
(0.000394944409793707 -2.52579756779395e-18 -8.80230438144354e-08 3.95835386052924e-30 -5.09963668607983e-22 4.69775824077732e-10)
(0.00039414633803414 -2.99588005402849e-18 -8.44193262061094e-08 2.84038448284177e-30 -4.89883107568031e-21 5.00096257656251e-10)
(0.000407645948742541 -2.36813327948926e-19 -4.58012533597552e-08 2.22635094034083e-30 -1.00067093582742e-20 3.77413493789637e-10)
(0.000394305035922304 2.86571193479e-18 7.57910148365501e-09 1.66049610468651e-30 -5.63973481606553e-21 4.57190868301641e-10)
(0.000376113709205983 3.74844434440156e-18 6.05400090661612e-08 1.17163027899217e-30 -1.6402498646381e-21 4.57320555545801e-10)
(0.000380865106403672 3.59196312044351e-18 5.76678007832365e-08 8.36953632865866e-31 -2.13530351929934e-21 4.85092802052517e-10)
(0.000398611365033608 1.50024217524569e-17 -7.20249840323714e-08 3.35282701728491e-30 -1.5972704611722e-20 4.22355545524729e-10)
(0.000424541630008601 1.3565346897216e-17 -1.74234725749588e-07 3.04803610504332e-30 -2.39134256507487e-20 4.59484831265558e-10)
(0.000467430681924563 1.48644763366911e-17 -4.57848243593601e-08 2.83514381243979e-30 -1.11091892427967e-20 2.7898500682924e-10)
(0.000483527643530879 1.5683670615938e-17 1.06725820565766e-07 2.37134279579856e-30 9.46638324674039e-21 2.57451697728101e-10)
(0.000481687661383345 1.13504066146373e-17 5.82963653327664e-08 1.89834081824028e-30 -2.67327563839172e-21 2.90533088698185e-10)
(0.000450102125434171 7.14560007036284e-18 1.32703334153769e-07 1.44648583028386e-30 -1.38538083056234e-22 3.22706191439699e-10)
(0.000413944235786667 3.40339225342237e-18 1.30433531636681e-08 1.05428998880032e-30 -1.0264564679826e-20 4.1346525780206e-10)
(0.000387079348279862 6.53431310253936e-17 1.53796439680056e-08 1.51098121906401e-27 -1.48589352861836e-19 3.50859540010057e-10)
(0.000362337788191835 -4.60714609072667e-17 4.80828001280365e-09 5.56656204464063e-28 -1.4290697999769e-19 4.09623674862863e-10)
(0.000338555709749722 -3.19679478904104e-17 4.38594427619847e-08 1.55858810746523e-28 -3.45811391334458e-20 3.97439463928836e-10)
(0.000322067934203751 -2.24086570261897e-17 -1.13948678736397e-08 4.59323313756414e-29 -3.86043461520147e-20 4.336617589192e-10)
(0.000312733173235991 -1.63262305750431e-17 -8.71183017080033e-09 1.44200488296944e-29 -8.81774575674738e-21 3.86674698074586e-10)
(0.000308000210729631 -1.21162110155165e-17 -2.33929610027991e-08 4.81089459903828e-30 -3.54158703655943e-21 3.9455157872812e-10)
(0.000301500549680256 -2.43660049958584e-17 -1.75285847280775e-08 1.28050125091384e-27 -4.88287922220467e-20 3.8556958842759e-10)
(0.000300338662899913 -9.54190233301791e-17 -3.28687343963803e-08 4.85373862236471e-28 -1.48195132012098e-19 4.25463931930908e-10)
(0.00029559878303087 -6.5166929919985e-17 -4.77117832753186e-08 1.62397674180294e-28 1.80789568281726e-20 3.96943999104784e-10)
(0.000295609745458725 -3.66795587096351e-17 -7.57578620797123e-08 4.95254568806064e-29 9.46661597543266e-21 6.05685220345822e-10)
(0.000311323984392819 -2.42475658365714e-17 -1.06251753776831e-07 1.48964992363571e-29 2.08960236040687e-20 5.41507984092404e-10)
(0.000328079311813223 -3.22836503126997e-17 -1.66170243948059e-07 1.24297997134048e-27 5.53244516284889e-20 6.67937978433262e-10)
(0.000351032622801783 -1.00281154914504e-16 -2.07038528743993e-07 3.094578275687e-28 2.52870008937586e-19 6.11869005320829e-10)
(0.000369579944436316 -4.21592923775406e-17 2.89240639257887e-08 6.43150103178969e-29 2.72001913733581e-20 1.6502503077432e-10)
(0.000356888346004558 -2.53917270995102e-17 8.05606854199839e-08 1.692445189763e-29 -1.59467467832014e-21 3.24513635453797e-10)
(0.000345851103334516 -1.47240714552496e-17 -4.31164110222527e-09 4.58522338061602e-30 -8.19146863807639e-21 1.47357948905974e-10)
(0.000346892030350432 -9.04853644619531e-18 1.58935756197646e-08 1.41181447300752e-30 -1.50429641711259e-21 1.27318038929895e-10)
(0.000338731507210754 -5.1534082060251e-17 1.6768533752304e-09 7.21622350968786e-28 -3.64457234305189e-20 1.5232689351156e-10)
(0.00033788799378387 -6.60234826623066e-17 -7.2705162198113e-08 1.94857373325055e-28 5.67965468454527e-20 2.39760072069809e-10)
(0.00035136890591736 -3.01889479615625e-17 -6.37190615947131e-09 5.23586608341546e-29 -1.46705689773945e-20 2.0040215150104e-10)
(0.0003315353002038 -1.66439650799186e-17 7.68882508228577e-08 1.5862485764617e-29 -1.00329719093528e-20 1.86100049658106e-10)
(0.000307062421484705 4.54875203433765e-19 4.09899128838149e-08 4.83435898775072e-30 -7.10710797470117e-21 2.98518550242446e-10)
(0.000295505317653877 1.35116790066867e-18 2.75057627160407e-09 1.6651886429343e-30 -6.04952674854104e-21 3.84661838550733e-10)
(0.000292598533391253 8.28626213316337e-18 2.69466314638888e-09 2.66068949589533e-30 -4.34545634269988e-21 4.50384596932333e-10)
(0.000283022261303056 6.0807758927846e-18 9.75820084682811e-10 1.8130852399439e-30 -3.76221199261731e-23 3.83345019453548e-10)
(0.000282652121780691 9.77055570945575e-18 -3.87485652621942e-08 3.03840512618127e-30 -4.16056093430804e-21 5.32496091888859e-10)
(0.000286532148349616 8.144770309005e-18 -7.38421090794031e-08 2.44426893514144e-30 -5.7902882964172e-21 4.81464346096774e-10)
(0.000295605832231871 5.84180809746726e-18 -8.14563221871927e-08 1.95186184921812e-30 -8.96939134474579e-21 5.39232704175687e-10)
(0.000299141762223121 8.32719038332449e-18 -6.67910667424591e-08 2.51319258474657e-30 -4.26600387868782e-21 4.18584119500872e-10)
(0.000304652382763226 5.96206424406578e-18 -6.34957963422393e-08 2.06618595530406e-30 -6.15643374878169e-21 4.96097840379573e-10)
(0.000314153957620134 1.0150202225218e-17 -5.17247388710852e-08 3.14814860951581e-30 -3.81489390707854e-21 3.48274174278116e-10)
(0.000326041691779411 6.71631488079771e-18 -8.93496660122506e-08 1.94301778306291e-30 -9.09528873346497e-21 4.0745910113874e-10)
(0.000330525260831216 7.35462704552956e-18 -8.20465625359978e-08 2.56099443930562e-30 -4.17796629421995e-21 3.4848480392638e-10)
(0.000328935851951595 5.61508038066954e-18 2.23536786603976e-08 1.69593466302948e-30 9.45550073918589e-21 2.73647292070297e-10)
(0.000327459916076966 7.28568580635415e-18 1.78895228821345e-08 2.80594620474172e-30 5.57668832697464e-21 8.36273707838844e-11)
(0.000332453944791977 5.14998472694378e-18 -1.8741451760115e-08 1.59824190621403e-30 -3.71151924784824e-21 7.58137999127518e-11)
(0.000334420637771782 7.22145355755628e-18 1.57051866177712e-08 2.44436703821523e-30 -3.46079284339822e-21 1.57830631084516e-10)
(0.000336606880776857 7.36593034247144e-18 -1.12632007146302e-08 1.68046096413685e-30 -7.38715367734395e-21 2.19492317686738e-10)
(0.000344540413490968 1.09124651616097e-17 -7.95145901593839e-08 2.5237744110626e-30 -1.34309729171305e-20 2.2570871966066e-10)
(0.000373754345919908 1.15268733400697e-17 -1.01196320124106e-07 3.48615535417311e-30 -1.52301532868374e-20 2.15717561797991e-10)
(0.000379848858143017 8.24489322513516e-18 -6.76581297551589e-08 1.97192902816948e-30 -3.69987831575891e-21 4.14343659165871e-10)
(0.000398833366525242 1.0698032545023e-17 -2.89087630359148e-08 2.77989533682184e-30 -4.32152251948803e-21 2.52864208032285e-10)
(0.000457517634663951 9.66668162869783e-18 -2.017167145703e-07 1.99714644080316e-30 -1.22223976338857e-20 3.05835818843947e-10)
(0.000547853459361258 1.48602677744066e-17 -2.91306393265067e-07 2.52120194404004e-30 -1.03647548596673e-20 5.06725585805875e-10)
(0.000659353304762078 1.28799627368558e-17 -2.1065055284512e-07 1.33539746590177e-30 -5.40067958335044e-21 3.12854284669824e-10)
(0.000709525904663666 1.09434688134188e-17 2.48464148210769e-07 1.46874080856452e-30 1.21625869569272e-20 7.10606678910889e-10)
(0.000580364247082965 9.93117895452455e-18 5.29474457755396e-07 1.74368111194679e-30 2.32104019001535e-20 1.45646747009568e-09)
(0.000493548951993494 9.60762408538008e-18 9.76708528309023e-08 1.84314042503157e-30 1.47078507702914e-20 4.64072469802451e-10)
(0.000456201792473188 6.91611790132177e-18 1.54591786566054e-07 1.16869537934708e-30 7.00677321705077e-21 2.88818084222053e-10)
(0.000418468207701528 4.63906624473158e-18 6.93659740638903e-08 8.06194094666991e-31 4.79262169693549e-22 2.56165703233265e-10)
(0.000376000359819662 4.08884320102385e-18 1.29594976555612e-07 6.23931502380448e-31 1.09173414782369e-21 3.00994801600158e-10)
(0.000344906437200532 1.98525755709097e-18 3.04837878355071e-08 4.77377660828658e-31 -2.28912934327353e-21 3.85495666830741e-10)
(0.000321150033161466 2.78200976727129e-18 4.88202846071835e-08 4.17544499295996e-31 -3.9524146620725e-22 4.84630463675526e-10)
(0.000308769901014916 3.31722261370881e-18 -2.11956795575032e-08 4.64959479518641e-31 -7.55820148553097e-22 5.83351400405773e-10)
(0.000311959241924065 3.5866201912994e-18 -3.03647646655177e-08 5.39972793038381e-31 -3.29690896359037e-21 5.05496079033558e-10)
(0.000315321962058412 2.44861080156445e-18 -1.14696219023381e-07 5.28001879352189e-31 -6.80036838107576e-21 6.52314134288403e-10)
(0.000317189387837757 3.0056041509725e-18 -1.03392262264345e-07 4.9269106613636e-31 -6.74086417300113e-21 5.85105177562477e-10)
(0.000335182434119563 2.04820393811239e-18 -1.40398280197443e-08 3.83235168354758e-31 -1.35446488507419e-21 2.40356692980083e-10)
(0.000322999436052962 1.6154414012166e-18 4.98564905771163e-08 2.76644401397881e-31 1.73303439654894e-21 2.7967374796384e-10)
(0.000305329868287574 1.15361240519407e-19 2.1553303037314e-08 2.14289819295312e-31 1.10246763730279e-21 1.91952791498006e-10)
(0.000288802632852914 -1.48007021052511e-17 3.30202084354444e-08 9.8048206086612e-30 5.33565462345667e-21 1.34219087670726e-10)
(0.000274923192060239 -6.16863859141658e-18 -5.39229373470301e-09 7.1384715096129e-30 1.72927775405559e-20 2.02097268996829e-10)
(0.000267929683041679 -1.50988844272519e-18 8.68986956765795e-09 1.88982426766335e-30 3.2743226759135e-21 1.42800838948022e-10)
(0.000260993084342243 -8.68923495045627e-19 1.57242089281533e-08 6.3701640631798e-31 3.9000811182633e-21 2.21870294090058e-10)
(0.000262433773704496 -1.56490011873725e-18 -2.32226841512976e-08 2.71027166395578e-31 3.11160155348476e-22 1.54568102794102e-10)
(0.00026499375768374 1.24441950879133e-17 -7.54440326004429e-08 3.82608064919102e-29 -1.12845465675786e-20 1.50295835523425e-10)
(0.000257310784847586 -1.0496918601356e-17 -3.90204190426704e-08 1.84351969748449e-29 3.24837777851734e-20 1.74729607996635e-10)
(0.000245958682862923 -7.59518678334013e-18 -7.43825729048239e-09 5.64416376172745e-30 1.28755675514087e-20 1.2193652030239e-10)
(0.000249338893931306 -5.47521500837723e-18 -6.42712730764318e-08 1.28876261232883e-30 7.16424316444373e-21 1.77227860371571e-10)
(0.000252841098797196 -6.49396736078137e-18 -2.81597706115792e-08 7.12005225623569e-30 1.11106870288229e-20 6.26629627584348e-11)
(0.000252733098285773 7.63534208824331e-18 -2.62948623312816e-08 5.15425762920247e-30 -5.56095690798223e-21 4.13284673767115e-11)
(0.000261708007782913 6.06837456658642e-18 -2.81734701530027e-08 3.4153240096402e-30 -7.26934076142071e-22 4.35896420903039e-11)
(0.000262019736313013 -3.37001367986612e-18 -2.3178350369435e-08 1.01041353026579e-30 1.74021025377935e-21 3.05098451808341e-11)
(0.000259272411873956 -3.52000978293654e-18 -7.3634989561555e-10 6.55007820151034e-31 6.81863103477323e-22 5.30563985559712e-11)
(0.000266502249413048 1.26868964669499e-18 -5.48051284317497e-08 3.00855108216135e-31 -3.01827325597335e-22 8.74439027231834e-11)
(4.3159134519577e-06 -2.41349905976786e-19 -3.84303158783642e-08 2.46426629167572e-32 2.51666483063246e-21 2.55422019629198e-08)
(2.29525836323852e-05 9.72132025295954e-18 -1.63531413419256e-07 3.90126425606976e-29 -1.27497197176841e-19 1.90690267319898e-08)
(5.5372619324201e-05 -7.05499245350718e-18 -9.69297766724225e-08 9.52502206585038e-30 3.98514441519658e-20 1.37297493437955e-08)
(9.92463125253362e-05 -9.43805321449673e-18 1.8488903616795e-08 3.46150834831897e-30 -7.84395664151712e-21 8.51765227164314e-09)
(0.000150198022514259 -7.74024533149509e-18 3.65453125968605e-08 1.97559557849373e-30 1.97091260039132e-20 1.01497234450399e-08)
(0.000213101485755596 -4.14821146916824e-17 -1.04675063357466e-07 4.62201004419473e-29 -1.12280941066766e-19 4.18355982944383e-09)
(0.00025594936918405 -3.99059367209445e-17 -4.04421027675931e-07 4.25985129026513e-29 4.62175527930067e-20 4.03296142558403e-09)
(0.0002945653530253 -2.92603685968231e-17 -4.34172114995151e-07 2.03458818485714e-29 9.92820339462696e-20 2.66702632707009e-09)
(0.000330279364081809 -1.89971854058289e-17 -8.93966936912476e-08 9.27769111096013e-30 -6.64763984497098e-21 9.06627257027266e-10)
(0.000361578555281961 -1.51916042819148e-17 9.83083886924019e-09 4.88829010530133e-30 -1.84055240495217e-20 8.65177017801612e-10)
(0.000381278463365442 -3.50518257821817e-17 -1.02188500006619e-07 1.0903639759884e-29 -2.0170269098926e-20 9.96471618244897e-10)
(0.000387200131818144 -2.83103086200943e-17 -1.59494941055442e-07 7.96643651860106e-30 2.7114045184098e-20 8.58003555559206e-10)
(0.000390276227120623 -3.86168293611714e-19 -1.23009857475257e-07 1.91188474304633e-29 1.1670471965222e-20 1.36782773863564e-09)
(0.00039327900435393 -1.36822558585838e-18 -1.42393244456103e-07 1.22042450477536e-29 -1.55914185978417e-20 1.44250974157953e-09)
(0.000404281692982789 2.13589848492067e-18 -7.65252662241287e-08 8.29029526251799e-30 -3.16820339390469e-20 1.07807420844023e-09)
(0.000394317100769204 8.14621990610803e-18 8.59611930620518e-09 5.87120724909519e-30 -2.03622053012434e-20 1.15944942445161e-09)
(0.000376957212153028 8.84585064197904e-18 1.0419318527138e-07 4.13695122263901e-30 -4.5468595495261e-21 1.33702746758943e-09)
(0.000382851866993938 8.15062391380483e-18 6.90833756678663e-08 2.95664566929921e-30 -9.2108464273763e-21 1.16961023300296e-09)
(0.000402237687375573 3.57058660678572e-17 -1.87831597707649e-07 1.88382774089379e-29 -5.67736644193444e-20 1.2915682375458e-09)
(0.000434330753540602 3.32524947475198e-17 -3.36877384346484e-07 1.51786035918235e-29 -9.49656533701456e-20 1.2734122732122e-09)
(0.000480726663615316 3.26472344747261e-17 -6.31463208089704e-08 1.17237142221251e-29 -3.18770944085258e-20 7.54534996627797e-10)
(0.000494317528219712 3.20663521314314e-17 2.14078251449809e-07 8.98027363738676e-30 3.30662400740109e-20 7.06280654300883e-10)
(0.00048450916971654 2.26103896844369e-17 9.44445617016284e-08 6.61906964602021e-30 -1.08002424468337e-20 8.64816393263325e-10)
(0.000445775930097314 1.34596676101848e-17 2.16558452795301e-07 4.71682715696679e-30 2.01922085590951e-22 7.08761760630893e-10)
(0.000410283895505792 6.19532818242546e-18 1.64658268911736e-08 3.31824431050161e-30 -2.98590136098189e-20 1.18656054365133e-09)
(0.000384419999948094 -4.86353402532243e-17 3.0866643944752e-08 1.10027061465508e-28 -5.38762502151285e-20 8.26383695041941e-10)
(0.000361496282105467 -5.03545417228333e-17 1.49836024970367e-08 8.3990117102951e-29 -3.21891153742914e-20 1.06641107031168e-09)
(0.000338839328151375 -4.50715694116639e-17 7.03185501755316e-08 4.49658012132322e-29 -1.51716058925883e-20 9.50350630576561e-10)
(0.000323829343317872 -3.72376723373615e-17 -1.52557408323738e-08 2.32696299705415e-29 -8.06637474099427e-22 1.18001990974873e-09)
(0.000315768892554358 -2.85151360171632e-17 -1.66037392544424e-08 1.15700060917615e-29 5.44035346949146e-21 9.17097074565199e-10)
(0.000311762611688415 -2.19132994570671e-17 -3.26049160196998e-08 6.20762769964923e-30 1.20309760423237e-20 1.03151946097497e-09)
(0.000306936632864074 -5.79945163711057e-17 -4.21677129601296e-08 7.67308445220734e-29 2.49151991062197e-20 9.49988223803731e-10)
(0.000306403861150217 -6.01822293459228e-17 -5.18915161257397e-08 6.66313264851038e-29 2.21899311309841e-20 1.17583702129617e-09)
(0.000302022820959369 -5.54535368625096e-17 -8.79866824469638e-08 4.62937260393522e-29 7.45472979278195e-20 9.76257765778867e-10)
(0.00030268118668686 -2.66499143944764e-17 -1.34066302450262e-07 2.18388471695854e-29 9.85763741675209e-20 1.6894861170154e-09)
(0.000318086721861066 -2.08255910611758e-17 -1.92161473100689e-07 9.7407564038116e-30 4.575214794141e-20 1.4150763508635e-09)
(0.000335252506143968 -6.96572993610465e-17 -2.85873618552707e-07 5.84107499726024e-29 1.38565599525796e-19 1.64704304278469e-09)
(0.000361743715002749 -6.52496078161262e-17 -3.48868035448233e-07 4.22798209472682e-29 1.76736051837486e-19 1.57785992536461e-09)
(0.000374066648190841 -5.38668937486702e-17 5.58033167720933e-08 2.11818932779176e-29 5.33504283163117e-21 3.98710998666169e-10)
(0.000361538599234601 -3.60921445830959e-17 1.2599033283162e-07 8.60609286462669e-30 -2.77516769276052e-20 7.71358412307003e-10)
(0.000350037296365846 -2.30182974165957e-17 -2.45715839416149e-09 3.78288451926943e-30 1.12840552147585e-22 4.50329104974479e-10)
(0.000350118596380566 -1.38445152738706e-17 2.93530549595096e-08 1.71659835741158e-30 -4.47001401248383e-21 3.40485775514584e-10)
(0.000338370469454174 -5.54624218609007e-17 1.53922460924749e-08 4.87845048990621e-29 8.10294883057347e-21 4.604170903345e-10)
(0.000335732094273622 -4.46164505028958e-17 -1.24080970638596e-07 2.58154240794222e-29 7.13109813260709e-20 6.10592236250412e-10)
(0.000345401055622307 -3.44737895465936e-17 -7.89689845522773e-09 1.29812028758131e-29 1.37201573477233e-20 5.6775021688585e-10)
(0.000327240437333121 -2.33080723672031e-17 1.32390358278413e-07 6.06406089981777e-30 -2.66588308848986e-20 4.46441259667333e-10)
(0.000306978520962398 7.88141036264506e-18 6.97570038664581e-08 6.38044600619143e-30 1.46994869379806e-20 9.25430358325789e-10)
(0.000297217386855397 7.09294850354797e-18 8.45301063730188e-09 2.86064293748845e-30 -9.23694874885854e-22 8.17768699350726e-10)
(0.00029377766894978 2.18216863726031e-17 8.62125395158776e-09 1.21780216000218e-29 1.07969289995785e-20 1.2274223930085e-09)
(0.000284762916225922 1.48043105197128e-17 7.78373174135287e-09 7.62584402007456e-30 8.49498650823746e-21 9.11692087907749e-10)
(0.00028502431309696 2.44417358681521e-17 -5.44458543098423e-08 1.54292534685723e-29 7.9927094208687e-21 1.4580555790096e-09)
(0.000288927960466756 2.02337959229231e-17 -1.26340963356722e-07 1.13347879552813e-29 -1.78632076863731e-20 1.20920580703683e-09)
(0.000297720606948326 1.40125752562646e-17 -1.29745515626295e-07 8.05016092568819e-30 -2.65870434818756e-20 1.45737515925782e-09)
(0.000302300468759009 2.11224670423491e-17 -1.16358249726848e-07 1.20861864330621e-29 -1.65621168517388e-20 1.03079527705114e-09)
(0.000307459065329141 1.45533497091584e-17 -9.5073572615622e-08 8.98773003521654e-30 -1.19882706405358e-20 1.38497254251038e-09)
(0.000313920080991625 2.32304145631935e-17 -8.26881849604528e-08 1.40494118567401e-29 -4.58617417792297e-21 9.02715191145623e-10)
(0.000325441976005258 1.47459091017916e-17 -1.47841223448612e-07 7.52841427180386e-30 -2.28755433234998e-20 1.09600163760779e-09)
(0.000332315091450486 1.8432785087418e-17 -1.38220192856859e-07 1.17745742982516e-29 -2.34074886306009e-20 8.97368836336987e-10)
(0.00032908253145858 1.242723070577e-17 5.53400242669937e-08 6.64561406379894e-30 3.15995914265587e-20 6.24617955085605e-10)
(0.000328750555051771 1.62112868663535e-17 3.44782480102285e-08 1.21042534205689e-29 1.80005071703504e-20 1.85702759298891e-10)
(0.00033356072176538 1.16444536919719e-17 -4.01479145305932e-08 6.53297891774109e-30 -1.13798281056911e-20 2.23244668859849e-10)
(0.000335620991320784 1.6677736070499e-17 1.27787490161679e-08 1.11543289572871e-29 -1.70490982194455e-20 3.43065555939535e-10)
(0.000337911430925208 1.63711998051936e-17 -2.5640970656046e-08 6.90985564382938e-30 -1.52003886349722e-20 7.09897083162714e-10)
(0.000350861443754846 2.31064574365446e-17 -1.60361811179887e-07 1.08149249995003e-29 -4.43370594074209e-20 6.936812094355e-10)
(0.000379170817077945 2.35956687391633e-17 -1.6231385942439e-07 1.5970109538342e-29 -5.00058856275149e-20 5.23562608488333e-10)
(0.000384158633418119 1.87003869474988e-17 -9.19075397712339e-08 8.39665756369137e-30 -2.01526871664576e-20 1.21181683594813e-09)
(0.000401514209238174 2.42288712828326e-17 -3.73111230695536e-08 1.27093811607971e-29 -1.0811671303323e-20 9.13119054853036e-10)
(0.000456949465383438 2.34923855544575e-17 -3.41681875913069e-07 8.37936732313423e-30 -4.69308248514136e-20 8.3682889167979e-10)
(0.000546937124591862 3.31807095206961e-17 -4.92796053056402e-07 1.06935471147045e-29 -3.4078032293607e-20 1.3799193672609e-09)
(0.000652308314101013 2.71996508539492e-17 -3.25261337759595e-07 5.12474612859138e-30 -2.14299223259242e-20 9.24382173015611e-10)
(0.000704130488040855 2.07083652722022e-17 4.18535425805898e-07 5.68542646334214e-30 3.53836283175296e-20 1.85132606558451e-09)
(0.000579159872295731 1.80831657859e-17 8.55064217503172e-07 6.78456237641163e-30 5.73121608798871e-20 3.61839694537985e-09)
(0.000494433891084833 1.84946872894612e-17 1.47227309495809e-07 7.74291128422161e-30 5.00096021812713e-20 1.19787001373384e-09)
(0.000455216468424391 1.30042441345313e-17 2.65265520927608e-07 4.09042592572706e-30 2.10861244396333e-20 7.56438771432503e-10)
(0.000416947150457814 8.4629230952847e-18 1.18413436042774e-07 2.69833652257833e-30 3.71161131343152e-21 7.71021212300963e-10)
(0.000375951199482083 7.91640001214471e-18 2.20668686827939e-07 2.37042707599415e-30 4.75841397138316e-21 7.85748266682436e-10)
(0.000346312416467098 4.31276449450953e-18 5.66671343231087e-08 1.81851568954423e-30 -7.73485361075624e-22 1.15067434804772e-09)
(0.000323159304548959 5.84227991968143e-18 7.92179163925157e-08 1.70020977401389e-30 1.24785036040071e-21 1.126252128602e-09)
(0.000311903642682632 7.22077090602411e-18 -3.90014604827461e-08 2.11338956761782e-30 6.01561186977158e-21 1.61247438108158e-09)
(0.000315940969768169 7.95793856393928e-18 -6.74690554573359e-08 2.59751709620667e-30 -8.00502653056406e-21 1.36058604221626e-09)
(0.000319815434206783 5.53661396135645e-18 -1.99001791615942e-07 2.19865422232591e-30 -2.35239134456665e-20 1.7159537285079e-09)
(0.00032145861621613 6.46318564366665e-18 -1.66955256454308e-07 2.10237149957136e-30 -2.51528495449913e-20 1.42051668665479e-09)
(0.000337489083468867 4.22708020828157e-18 -1.46857830650558e-08 1.48812837246257e-30 -4.05237735361681e-21 5.87527557940863e-10)
(0.000326120220720538 2.56892793963036e-18 9.51978738662561e-08 1.08175299580781e-30 4.65498229370974e-21 6.88480403876799e-10)
(0.000306656428986196 -5.72345440391362e-20 4.01453527630413e-08 8.12120280506202e-31 4.50964577806984e-21 4.52159684665181e-10)
(0.000289148752739221 -1.66717639733457e-18 5.40367769351898e-08 8.11411048883902e-31 3.80206585298905e-21 2.99117657437332e-10)
(0.000276375478404089 -1.7327645083614e-18 -1.0234633956916e-08 8.38854120950422e-31 9.74565885050248e-21 5.94233840381681e-10)
(0.000270504720587761 -2.72458917937969e-18 1.20695141848859e-08 6.69436709396068e-31 4.69897630914321e-21 3.6289716888346e-10)
(0.000261195498682421 -2.47279825120986e-18 2.87480405222324e-08 5.6709403680006e-31 7.61298298498924e-21 6.62594967405404e-10)
(0.000262756734229708 -3.62928386823955e-18 -4.88304877391514e-08 5.22356651281452e-31 2.64923165039808e-21 3.60290451621602e-10)
(0.00026212230879219 -1.44323435242141e-18 -1.37114889750587e-07 1.42718089286186e-30 -1.95908864824718e-21 4.41910993443176e-10)
(0.000250534209203179 -3.83206909744484e-18 -5.05538292708907e-08 1.29743091941628e-30 1.45041513095242e-20 5.23507111648706e-10)
(0.000238367813728324 -4.26504337711696e-18 -3.05174072501142e-09 7.18515375958148e-31 4.47524162792245e-21 3.33171358413657e-10)
(0.00023931382901643 -4.25759105939664e-18 -1.1192480943952e-07 5.63905083778881e-31 5.97790289331473e-21 5.87004237489477e-10)
(0.000247459522952687 -3.22700887796448e-18 -5.25492677623687e-08 1.07600246890982e-30 -3.66469325164037e-21 1.88957852712757e-10)
(0.000247147189875507 -1.30775146383872e-18 -4.0493715036612e-08 6.08768426188217e-31 -2.99397785934017e-21 9.34653925976249e-11)
(0.00025309933026918 -1.52984368562804e-18 -4.78215560823743e-08 4.66345849847643e-31 2.90175829123633e-21 1.02065467340044e-10)
(0.000251825974296294 -2.09640996261315e-18 -3.52775444704141e-08 3.26348915786865e-31 1.1283408249598e-21 7.12571830212979e-11)
(0.000253265686551263 -1.50516021977979e-18 -7.17315916573801e-09 2.68770448918313e-31 1.10477744772406e-21 1.52362386283816e-10)
(0.000258399986424296 -1.44960207054011e-18 -7.82999381140147e-08 2.54449168989135e-31 1.18667079825467e-21 1.87961501163162e-10)
(4.44605740290704e-06 -3.73885105342252e-19 -4.57194184142222e-08 5.68264507932384e-32 6.82389011842086e-21 4.10830435659911e-08)
(2.3330254476317e-05 1.51532261358229e-18 -2.23021953372484e-07 2.24345042662113e-30 -1.19737207081638e-19 3.38463698669618e-08)
(5.54298150416965e-05 -1.07762323856673e-17 -4.01214485543718e-08 9.21273512470783e-30 3.68381054151665e-20 3.51795238512466e-08)
(9.95701810238003e-05 -1.30716065598838e-17 7.94609451581249e-08 5.08910836204615e-30 -7.75119874433752e-20 2.13740147711394e-08)
(0.000151111892098044 -1.1059256200823e-17 8.5148593353642e-08 2.7060960732903e-30 -2.3412473813592e-21 2.69098458250598e-08)
(0.000210757417070884 1.18722968511768e-17 -2.17962732357595e-07 6.30014977104386e-29 4.06723571940327e-19 1.21100667345477e-08)
(0.000252919878762858 1.81124460830786e-17 -7.04968344720461e-07 2.39885405495872e-29 -2.36573776092169e-20 1.07331638827364e-08)
(0.000287024419276305 5.28628519431578e-18 -7.18499982390209e-07 7.41141279155646e-30 -1.73375942787151e-20 7.28164499378296e-09)
(0.00032108587495383 -3.53434541349356e-18 -8.00656776171933e-08 3.93460676052205e-30 3.4321753640228e-20 2.97925422502216e-09)
(0.000354798255891575 -4.22076175491078e-18 6.21336183445387e-08 2.61429488975638e-30 1.47436703536966e-20 2.32261249844244e-09)
(0.000373914366598171 -4.85473691721284e-17 -9.47289087712891e-08 2.7242817212482e-29 -3.98655870995232e-20 2.97448750988173e-09)
(0.000377509224972705 -4.40292079913292e-17 -1.8588399210853e-07 2.09724431347371e-29 6.28288427502176e-20 1.736028266741e-09)
(0.000379301651006081 -6.06455730982961e-18 -8.20303882667357e-08 1.48472333053206e-28 2.02917744209128e-19 3.51362590737949e-09)
(0.000386170443598122 1.69944806690632e-17 -1.97672537324163e-07 5.92436523298525e-29 1.81988699865295e-20 3.30216646619449e-09)
(0.000396318294874076 1.11703723399414e-17 -1.08392451134386e-07 2.48401020836487e-29 -1.58555792146844e-20 2.69269085815303e-09)
(0.000388529424648176 1.55117751404569e-17 -1.94231357092604e-08 1.24031916675663e-29 -7.52878901354723e-20 2.47824529740332e-09)
(0.000375691346391038 1.45687535841903e-17 1.63647556727659e-07 7.10148011979213e-30 2.71457509846914e-20 3.9270451529879e-09)
(0.000381814438402905 1.23714306625544e-17 3.30636645701108e-08 4.5867901821186e-30 -7.86076334422488e-21 2.44902746934864e-09)
(0.00040144960902877 3.04930669236906e-17 -3.71211301904719e-07 1.61603147215061e-28 1.89479356370412e-20 3.1667253975712e-09)
(0.000435957201572634 7.17101372273461e-17 -6.03168830459601e-07 9.13525798681651e-29 -3.92265516856469e-19 3.36432634299167e-09)
(0.000484998486681931 6.12162014367639e-17 -9.83649662839347e-08 3.89303813263823e-29 -8.42218735900591e-20 1.99101573762954e-09)
(0.000489181819969042 5.11010959403577e-17 3.24048441775846e-07 1.9317471475697e-29 4.3529788513809e-20 1.62757312768826e-09)
(0.000469009364962858 3.46225750621737e-17 1.71942376427919e-07 1.05522052149723e-29 1.90657504432642e-20 2.1188857585239e-09)
(0.000426315999437099 1.9051797975585e-17 3.15595142570318e-07 6.19973678968126e-30 1.19962917572821e-20 1.28401040979087e-09)
(0.000394557926581607 9.10684610277601e-18 5.57045615250606e-08 4.11639291445421e-30 -3.50194687206468e-20 2.64583558489224e-09)