/*--------------------------------*- C++ -*----------------------------------*\
| =========                 |                                                 |
| \\      /  F ield         | OpenFOAM: The Open Source CFD Toolbox           |
|  \\    /   O peration     | Version:  2.3.0                                 |
|   \\  /    A nd           | Web:      www.OpenFOAM.org                      |
|    \\/     M anipulation  |                                                 |
\*---------------------------------------------------------------------------*/
FoamFile
{
    version     2.0;
    format      ascii;
    class       volScalarField;
    location    "25000";
    object      nut;
}
// * * * * * * * * * * * * * * * * * * * * * * * * * * * * * * * * * * * * * //

dimensions      [0 2 -1 0 0 0 0];

internalField   nonuniform List<scalar> 
10000
(
0.000187703685567938
0.000138759263593594
0.00010880863818584
9.11601315027143e-05
8.2146284463626e-05
7.84282933525843e-05
7.75379147865472e-05
7.84046763197508e-05
8.03033075218665e-05
8.29138283225064e-05
8.59775077750568e-05
8.92323430882489e-05
9.24611901661414e-05
9.54894981353857e-05
9.82063539635385e-05
0.000100547779520239
0.000102496762995058
0.000104064993845759
0.000105287218680644
0.000106207720983217
0.000106876347379546
0.000107340989372372
0.000107646379647296
0.000107830921994439
0.000107927257168168
0.000107961457739888
0.000107954250880486
0.000107921203112364
0.000107873941735968
0.000107820607431718
0.000107766818138837
0.000107716090713225
0.000107670510754375
0.000107631035065238
0.000107597914824441
0.000107570887765397
0.000107549426354835
0.000107532834147421
0.000107520376201338
0.00010751131901308
0.000107504990972926
0.000107500789801854
0.000107498204007219
0.000107496804618463
0.000107496247381633
0.000107496259139255
0.000107496632267991
0.000107497211220566
0.000107497885224368
0.00010749857734854
0.000107499238137732
0.000107499837756712
0.000107500361380377
0.000107500804040281
0.000107501167790798
0.000107501458707949
0.000107501685286303
0.000107501856821322
0.000107501982697383
0.000107502071649251
0.000107502131565911
0.00010750216922892
0.000107502190376602
0.000107502199663337
0.000107502200835073
0.000107502196759932
0.00010750218964341
0.000107502181045985
0.000107502172116485
0.000107502163547113
0.000107502155837893
0.000107502149150914
0.000107502143645359
0.000107502139186266
0.000107502135811781
0.000107502133226491
0.000107502131497615
0.000107502130220633
0.000107502129596815
0.000107502129091587
0.000107502129131832
0.000107502128969725
0.000107502129372853
0.000107502129232722
0.000107502129834543
0.000107502129475359
0.000107502130241618
0.000107502129468108
0.00010750213049482
0.000107502129111327
0.000107502130629319
0.000107502128369328
0.000107502130758371
0.000107502127188159
0.000107502131025419
0.000107502125494032
0.000107502132246594
0.000107502219579912
0.000107506736573758
0.000107506861144677
0.000187031047292976
0.00013809195882485
0.000108267806406165
9.08241141369839e-05
8.2070851357282e-05
7.85621182275927e-05
7.77983815830428e-05
7.87507732021723e-05
8.07025436063219e-05
8.33518190669861e-05
8.64421945124876e-05
8.97121684407207e-05
9.29472749629826e-05
9.59752411074499e-05
9.8687469595846e-05
0.00010102158821237
0.000102962110401638
0.0001045216375968
0.000105735643580413
0.00010664872772494
0.000107310959611865
0.000107770237133135
0.000108071278709591
0.000108252373457581
0.000108346062283687
0.00010837827952377
0.000108369641604509
0.000108335595703442
0.000108287677740584
0.000108233940447095
0.000108179937026956
0.000108129126290088
0.000108083552969996
0.000108044139103868
0.000108011112733622
0.000107984193285947
0.000107962842153304
0.000107946354575342
0.000107933991517709
0.000107925016822368
0.000107918758471152
0.000107914614330705
0.00010791207409466
0.00010791071002777
0.000107910179482567
0.000107910210721207
0.000107910597582016
0.000107911185721584
0.000107911865481326
0.000107912560801904
0.000107913222980261
0.000107913822741349
0.000107914345716255
0.000107914787254544
0.000107915149659577
0.000107915439167881
0.000107915664388346
0.00010791583467879
0.000107915959461639
0.000107916047482173
0.000107916106629778
0.000107916143673374
0.000107916164336788
0.000107916173254506
0.000107916174155111
0.000107916169887214
0.000107916162641662
0.000107916153962589
0.00010791614498892
0.000107916136399841
0.000107916128690665
0.000107916122012631
0.000107916116525546
0.000107916112083931
0.000107916108732247
0.000107916106162479
0.000107916104454792
0.000107916103186817
0.000107916102581613
0.000107916102077128
0.000107916102135127
0.000107916101964359
0.000107916102387681
0.000107916102227614
0.000107916102856896
0.000107916102462935
0.000107916103270901
0.000107916102441397
0.000107916103534356
0.000107916102062668
0.000107916103686845
0.000107916101288066
0.000107916103846787
0.000107916100057291
0.00010791610416468
0.000107916098287846
0.000107916105499913
0.000107916194849766
0.000107920878119853
0.000107920858962669
0.000185709454295236
0.000136766306412089
0.000107193783137177
9.01731207038182e-05
8.19599181458398e-05
7.88728593065871e-05
7.82499485916633e-05
7.91919156623707e-05
8.11716563712101e-05
8.38547954672639e-05
8.69675669904132e-05
9.0244664336071e-05
9.3474352710228e-05
9.64883996370237e-05
9.91822976426716e-05
0.000101496672696593
0.000103418272966821
0.000104960875360778
0.000106160552396912
0.000107061959266722
0.000107715000372774
0.000108167236367486
0.00010846303107612
0.000108640314073371
0.000108731317453099
0.000108761707796641
0.000108751888012951
0.00010871713181982
0.000108668841823262
0.000108614966276703
0.000108560980405688
0.000108510283921706
0.000108464879171395
0.000108425657219153
0.000108392825648586
0.000108366091059935
0.000108344907082337
0.000108328565051028
0.000108316324742333
0.00010830745065059
0.00010830127253858
0.000108297190676709
0.000108294697405311
0.000108293367631642
0.000108292861180205
0.000108292908524734
0.000108293305409211
0.00010829389908314
0.000108294581180965
0.000108295276665165
0.000108295937617339
0.000108296535347322
0.000108297055904006
0.000108297494923587
0.000108297854908259
0.000108298142209299
0.000108298365495549
0.000108298534144079
0.000108298657572473
0.000108298744504276
0.000108298802799769
0.000108298839194157
0.000108298859378444
0.000108298867954977
0.000108298868624602
0.00010829886421026
0.000108298856882762
0.000108298848167558
0.000108298839191022
0.000108298830619233
0.000108298822941319
0.000108298816298812
0.000108298810851283
0.000108298806444474
0.000108298803128261
0.000108298800584464
0.000108298798904421
0.000108298797651526
0.000108298797067117
0.00010829879656716
0.000108298796642042
0.000108298796465642
0.00010829879690567
0.000108298796729144
0.000108298797379533
0.000108298796955979
0.000108298797795593
0.000108298796918677
0.00010829879806253
0.000108298796517051
0.000108298798223921
0.000108298795710085
0.000108298798401989
0.000108298794431522
0.000108298798751543
0.000108298792581195
0.00010829880013392
0.000108298883050833
0.000108303662443155
0.000108303611382163
0.000183905970137301
0.000134946022362887
0.000105725571079124
8.93194098471897e-05
8.188679508843e-05
7.91361709893658e-05
7.86047561731995e-05
7.95905429289493e-05
8.16240890652993e-05
8.43506572018546e-05
8.74855077570928e-05
9.07626234552205e-05
9.39755227427924e-05
9.69620711897876e-05
9.96235148363503e-05
0.00010190458524183
0.000103794965507839
0.000105309918456106
0.000106486234116093
0.000107368564768995
0.000108006530609171
0.00010844716771839
0.000108734297484215
0.000108905287076495
0.000108991880789506
0.000109019307809309
0.000109007618163883
0.000108971790166132
0.000108922998567301
0.000108869009441754
0.000108815163205333
0.000108764756475253
0.000108719719287213
0.000108680890101244
0.000108648443133403
0.000108622064090264
0.000108601195363839
0.000108585123226814
0.000108573107281903
0.000108564414527748
0.000108558379150933
0.000108554406517624
0.000108551994393751
0.000108550722817092
0.00010855025636552
0.000108550329628651
0.000108550741881635
0.000108551343251796
0.000108552027702502
0.000108552721993868
0.000108553379582847
0.000108553972778076
0.000108554488338068
0.000108554922370298
0.000108555277691683
0.000108555560823821
0.000108555780516053
0.000108555946156554
0.000108556067136599
0.000108556152126013
0.000108556208922199
0.000108556244191326
0.000108556263559675
0.000108556271567522
0.000108556271863259
0.000108556267221949
0.000108556259777686
0.000108556251022069
0.000108556242059237
0.000108556233532191
0.000108556225919743
0.00010855621934684
0.000108556213973184
0.000108556209629918
0.000108556206376606
0.000108556203878163
0.000108556202245369
0.000108556201017551
0.000108556200467669
0.000108556199974085
0.000108556200076666
0.000108556199889291
0.000108556200357194
0.00010855620015165
0.000108556200838344
0.000108556200363982
0.000108556201259052
0.000108556200301458
0.000108556201534871
0.000108556199863944
0.000108556201716071
0.000108556199006287
0.000108556201931558
0.000108556197652365
0.000108556202344292
0.00010855619567483
0.000108556203754999
0.000108556278845771
0.000108561224559307
0.000108561076268477
0.000181720737074607
0.000132734897969094
0.000103956981200431
8.8352906414734e-05
8.17966903377954e-05
7.92640321114132e-05
7.8855548574005e-05
7.99271320030795e-05
8.20330289281798e-05
8.48072833915909e-05
8.79602839424815e-05
9.12286264992571e-05
9.44133591047697e-05
9.7360053512585e-05
9.99768485134729e-05
0.000102213296263857
0.000104062418567737
0.000105541115007586
0.000106686914084402
0.000107544376321674
0.000108162710703905
0.000108588262619584
0.00010886414771052
0.000109027002931279
0.000109107936791529
0.000109131604436091
0.0001091175905599
0.00010908048160608
0.00010903114967362
0.000108977118373092
0.000108923549372964
0.000108873602970445
0.000108829114532169
0.000108790854303702
0.000108758954212714
0.000108733073818248
0.000108712642461533
0.000108696941274159
0.000108685231134472
0.000108676783548779
0.000108670939610125
0.000108667112217952
0.000108664806971
0.00010866361115883
0.00010866319600971
0.000108663301795533
0.00010866373263483
0.000108664342559726
0.000108665028676227
0.000108665720144444
0.00010866637224639
0.00010866695859912
0.000108667466882505
0.000108667893805997
0.000108668242576432
0.000108668519916692
0.000108668734661649
0.000108668896195512
0.000108669013859158
0.000108669096238154
0.000108669151036205
0.000108669184819642
0.000108669203122692
0.00010866921039852
0.000108669210222641
0.000108669205304176
0.000108669197727131
0.00010866918893718
0.000108669180008755
0.000108669171553969
0.00010866916403842
0.000108669157565105
0.00010866915229458
0.000108669148038798
0.000108669144870829
0.000108669142433228
0.000108669140863278
0.000108669139668073
0.000108669139163465
0.000108669138677099
0.000108669138815896
0.000108669138612577
0.000108669139117427
0.000108669138872061
0.000108669139607765
0.000108669139064725
0.000108669140035424
0.000108669138969322
0.000108669140325173
0.000108669138485636
0.000108669140536196
0.000108669137562829
0.000108669140806537
0.000108669136111717
0.000108669141310673
0.000108669133969437
0.00010866914272154
0.000108669208287565
0.000108674371596908
0.000108674076367735
0.000179227950709616
0.000130213925228606
0.000101965980606675
8.73580153705953e-05
8.15695451618157e-05
7.9260909927369e-05
7.90072118510747e-05
8.01913347226012e-05
8.23793023058999e-05
8.51999938685663e-05
8.8363963997047e-05
9.16134387590141e-05
9.47588431236658e-05
9.76545970237962e-05
0.000100216415852358
0.000102399051916252
0.000104199018141701
0.000105634861980331
0.000106744783438111
0.000107573131711285
0.000108168566864495
0.000108576593248065
0.00010883947776164
0.000108992990226515
0.000109067483885067
0.000109086934147982
0.000109070373912662
0.000109031926060186
0.000108982104833292
0.000108928148360168
0.000108875008596752
0.000108825687062479
0.000108781909744879
0.00010874436909283
0.000108713149828828
0.000108687882941825
0.000108667984571441
0.000108652731691426
0.000108641388323714
0.000108633232616255
0.000108627614875501
0.000108623957700444
0.000108621776546274
0.00010862066769736
0.000108620310537224
0.000108620452241515
0.000108620902766541
0.000108621520814414
0.000108622207223047
0.000108622893979556
0.000108623538498788
0.000108624115910762
0.000108624614948188
0.00010862503299866
0.000108625373693926
0.000108625643964599
0.000108625852720827
0.000108626009320977
0.000108626123029024
0.000108626202317329
0.000108626254768225
0.00010862628682205
0.000108626303898366
0.000108626310343189
0.000108626309643133
0.000108626304427534
0.000108626296720296
0.000108626287912261
0.000108626279042887
0.000108626270687815
0.000108626263297706
0.000108626256949841
0.000108626251806606
0.000108626247657493
0.000108626244592339
0.000108626242227272
0.000108626240731763
0.000108626239574385
0.000108626239122792
0.000108626238643671
0.000108626238824816
0.000108626238601188
0.000108626239149751
0.00010862623885582
0.000108626239650369
0.000108626239024557
0.000108626240086787
0.000108626238890438
0.000108626240394786
0.000108626238353006
0.000108626240644163
0.000108626237354496
0.000108626240984031
0.000108626235790192
0.000108626241603123
0.000108626233454659
0.000108626242979237
0.000108626297001474
0.000108631709599617
0.00010863123403156
0.000176485135332229
0.000127448720430358
9.98203347371096e-05
8.6405870933997e-05
8.12058882808526e-05
7.91409384832039e-05
7.90648485726922e-05
8.03763460630992e-05
8.26487271915683e-05
8.55102084354403e-05
8.86756654392871e-05
9.18955218701955e-05
9.49909776879458e-05
9.78260210877586e-05
0.000100324266150415
0.000102445779691704
0.00010419053171991
0.000105578625152443
0.000106648804712592
0.000107445069851865
0.00010801539227974
0.000108404301232788
0.000108653092373672
0.000108796558317816
0.000108864202822103
0.000108879241733618
0.000108860091784247
0.000108820360892304
0.000108770166532087
0.000108716432270773
0.000108663879997906
0.000108615338567334
0.000108572416031185
0.000108535722184013
0.000108505292758445
0.000108480729902588
0.000108461437662136
0.000108446690583097
0.000108435757966676
0.000108427926763296
0.000108422558608532
0.000108419087697679
0.00010841704102588
0.000108416025280529
0.000108415729172269
0.00010841590770829
0.000108416377413285
0.00010841700220664
0.000108417687064287
0.000108418367083976
0.000108419002007222
0.000108419568597138
0.0001084200567077
0.000108420464437704
0.00010842079584814
0.000108421058065273
0.000108421260053346
0.000108421411118513
0.000108421520420407
0.000108421596291209
0.000108421646167397
0.000108421676341349
0.000108421692099534
0.000108421697665065
0.000108421696423371
0.000108421690913692
0.000108421683092608
0.000108421674289826
0.000108421665506353
0.000108421657277595
0.000108421650038474
0.000108421643838081
0.000108421638841782
0.000108421634814407
0.000108421631865314
0.000108421629581288
0.000108421628168497
0.00010842162705226
0.00010842162665896
0.000108421626186471
0.000108421626414148
0.000108421626166389
0.000108421626763544
0.000108421626414044
0.00010842162727489
0.000108421626555364
0.000108421627721454
0.000108421626378188
0.000108421628051369
0.000108421625781634
0.0001084216283463
0.000108421624700005
0.000108421628767909
0.000108421623011186
0.000108421629521378
0.000108421620461402
0.00010842163082675
0.000108421671211124
0.000108427350189592
0.000108426671894366
0.000173538051922577
0.000124493435384123
9.758072504749e-05
8.54704451849521e-05
8.07245946918293e-05
7.89178819513528e-05
7.90329806792291e-05
8.04775898415151e-05
8.28309821302605e-05
8.57244097128061e-05
8.88804912787178e-05
9.20599141784319e-05
9.50956220702525e-05
9.78615288770646e-05
0.000100289194274699
0.000102343913481045
0.00010402895100133
0.000105365802855201
0.000106393596537942
0.000107155835581456
0.000107699669652483
0.000108068535630393
0.00010830265561365
0.000108435758174726
0.000108496425370445
0.000108507054956495
0.000108485401505645
0.000108444522841191
0.000108394113935633
0.000108340765662538
0.000108288957884808
0.000108241339489275
0.000108199396785806
0.00010816365560415
0.000108134103214204
0.000108110314190467
0.000108091682468554
0.00010807748236065
0.00010806699070561
0.00010805950535271
0.000108054401173438
0.000108051125590883
0.000108049218521599
0.000108048298171127
0.000108048063469525
0.000108048277937885
0.000108048765185244
0.000108049394718724
0.000108050075912934
0.000108050747146363
0.000108051370592646
0.00010805192470296
0.000108052400473652
0.000108052796715349
0.000108053117900649
0.00010805337132647
0.000108053565983006
0.000108053711095512
0.000108053815692221
0.000108053887940525
0.000108053935109767
0.000108053963326169
0.000108053977728365
0.00010805398240443
0.000108053980629456
0.000108053974845174
0.000108053966935877
0.000108053958165922
0.000108053949495809
0.000108053941418373
0.000108053934352695
0.000108053928318215
0.000108053923484522
0.000108053919590421
0.000108053916767096
0.000108053914569995
0.000108053913245493
0.000108053912172202
0.000108053911840496
0.000108053911373568
0.000108053911650402
0.000108053911375192
0.000108053912024278
0.000108053911613691
0.000108053912546311
0.000108053911724771
0.000108053913004055
0.000108053911501417
0.000108053913358958
0.000108053910842127
0.000108053913705437
0.000108053909672464
0.000108053914218793
0.000108053907851523
0.000108053915122382
0.000108053905072706
0.00010805391632418
0.00010805394109035
0.000108059892895635
0.00010805899673786
0.000170423834057917
0.000121393369777701
9.53030466692669e-05
8.447952741191e-05
8.01426242428746e-05
7.86034832214852e-05
7.89154896265768e-05
8.04920293499948e-05
8.29187666329388e-05
8.58331869465708e-05
8.89684307400444e-05
9.209700932134e-05
9.50641900333686e-05
9.77538706028793e-05
0.000100105402613617
0.000102089077771295
0.000103711210841614
0.000104994486029165
0.000105978235399999
0.000106705321295302
0.000107221948491765
0.000107570361213981
0.000107789624894952
0.00010791233732113
0.000107966105595972
0.00010797246835919
0.000107948487170472
0.00010790664759576
0.000107856206912136
0.000107803413675719
0.000107752500297205
0.000107705933373872
0.00010766507724568
0.000107630375065135
0.000107601767798574
0.000107578804761807
0.000107560872325782
0.000107547247003581
0.000107537215434523
0.00010753008833032
0.00010752525548287
0.000107522178917224
0.000107520412583026
0.000107519587063009
0.000107519412163872
0.000107519660398782
0.000107520162803089
0.000107520794699898
0.000107521470008707
0.000107522130470236
0.000107522740728273
0.000107523280927828
0.000107523743194188
0.000107524127026827
0.000107524437277385
0.000107524681380098
0.000107524868319156
0.000107525007209674
0.000107525106922812
0.000107525175439216
0.000107525219842973
0.000107525246079372
0.000107525259127699
0.00010752526293193
0.000107525260650282
0.000107525254621918
0.000107525246655715
0.000107525237948122
0.00010752522941817
0.000107525221514917
0.000107525214642003
0.000107525208788549
0.000107525204129619
0.000107525200377303
0.000107525197686493
0.000107525195580052
0.000107525194347215
0.000107525193317497
0.000107525193049113
0.000107525192586373
0.000107525192913738
0.000107525192608251
0.000107525193311347
0.00010752519283544
0.000107525193843653
0.000107525192914042
0.00010752519431331
0.000107525192642404
0.000107525194695722
0.000107525191918192
0.000107525195098621
0.00010752519065758
0.000107525195711716
0.000107525188699889
0.000107525196777837
0.000107525185682444
0.000107525197849018
0.000107525205253485
0.000107531428510241
0.000107530304263114
0.00016717313149526
0.000118186869501057
9.30402589717946e-05
8.34134925060019e-05
7.94748580681193e-05
7.82074266682504e-05
7.87156510351696e-05
8.04177519599493e-05
8.29071782893753e-05
8.58304425526955e-05
8.89334008578013e-05
9.20014691623066e-05
9.48924818626007e-05
9.75001407247354e-05
9.97712969974628e-05
0.000101680905020632
0.000103238040191636
0.000104466348419177
0.000105405185465679
0.000106096634331911
0.000106585845976687
0.000106913788283207
0.000107118304808063
0.000107230813173724
0.000107277908490838
0.00010728024363338
0.000107254168688949
0.000107211585108753
0.000107161305636221
0.000107109233446935
0.000107059353091298
0.000107013950259904
0.000106974269729016
0.000106940675115873
0.000106913064332021
0.000106890964419273
0.000106873757044209
0.000106860723428932
0.000106851162191037
0.000106844398688878
0.000106839839090436
0.000106836961151362
0.0001068353337249
0.000106834600406941
0.000106834482340199
0.000106834761338799
0.000106835276065696
0.000106835907774631
0.00010683657498685
0.000106837222818516
0.000106837818370912
0.000106838343452314
0.000106838791279093
0.000106839162000003
0.000106839460803681
0.00010683969522361
0.000106839874204586
0.000106840006723116
0.0001068401014697
0.000106840166219094
0.000106840207855077
0.000106840232130305
0.000106840243856041
0.000106840246825699
0.00010684024407626
0.00010684023784119
0.000106840229852268
0.000106840221236808
0.000106840212872241
0.000106840205163518
0.000106840198499585
0.000106840192839196
0.00010684018836409
0.000106840184759481
0.000106840182205458
0.000106840180191672
0.000106840179052105
0.000106840178065686
0.000106840177861097
0.000106840177401004
0.000106840177779277
0.00010684017744116
0.000106840178199309
0.000106840177654986
0.000106840178741203
0.000106840177699396
0.000106840179223244
0.000106840177378213
0.000106840179635167
0.000106840176588052
0.000106840180098321
0.0001068401752352
0.000106840180817291
0.000106840173138544
0.000106840182055321
0.000106840169877225
0.000106840182975978
0.000106840171584562
0.000106846659105157
0.000106845300023537
0.000163811625999124
0.000114906766988857
9.08436877822521e-05
8.22802332398485e-05
7.87343064563528e-05
7.77375811303218e-05
7.8436215351172e-05
8.02537228358334e-05
8.27932560881923e-05
8.57127572222398e-05
8.87724550349733e-05
9.17713170401013e-05
9.45797082433027e-05
9.71007761390088e-05
9.92884828001325e-05
0.000101122051559931
0.000102613007865687
0.000103785726556662
0.000104679412781609
0.000105335243303136
0.000105797221799805
0.000106104972038226
0.000106295066822945
0.000106397709218136
0.000106438459074802
0.000106437068647408
0.000106409168179764
0.000106366071307268
0.000106316145965639
0.000106264951898825
0.000106216229182529
0.000106172086689398
0.000106133653920206
0.00010610121937954
0.000106074641838753
0.000106053429435645
0.000106036962120226
0.000106024528284107
0.000106015440552498
0.000106009040506981
0.000106004751918722
0.000106002069172219
0.000106000576679828
0.000105999931493118
0.000105999866383827
0.000106000172636166
0.000106000696628664
0.000106001325570307
0.000106001982571812
0.000106002616086099
0.000106003195621897
0.000106003704594032
0.000106004137255532
0.000106004494353783
0.00010600478136706
0.000106005005887978
0.000106005176788874
0.000106005302880878
0.00010600539265278
0.000106005453657175
0.00010600549256538
0.000106005514928493
0.000106005525383554
0.000106005527569156
0.00010600552439848
0.000106005517997738
0.000106005510021091
0.000106005501526516
0.000106005493350355
0.000106005485853793
0.000106005479412056
0.000106005473953956
0.000106005469669016
0.000106005466215835
0.000106005463800814
0.000106005461880268
0.000106005460834152
0.000106005459890084
0.000106005459748779
0.000106005459289724
0.000106005459718486
0.000106005459345852
0.000106005460159237
0.000106005459544411
0.000106005460709841
0.000106005459553388
0.000106005461204509
0.000106005459182109
0.000106005461647462
0.000106005458325931
0.000106005462173739
0.000106005456880867
0.00010600546300302
0.000106005454644997
0.000106005464419573
0.000106005451138228
0.000106005465177347
0.000106005433901047
0.000106012174140187
0.00010601057609693
0.000160361126660559
0.000111581508208939
8.87612403473143e-05
8.10948641389726e-05
7.79319805105408e-05
7.72002713666835e-05
7.80795184969111e-05
7.99996428888277e-05
8.25756411249729e-05
8.54788835902999e-05
8.84851399163233e-05
9.14071991664249e-05
9.41276971932316e-05
9.6558743342376e-05
9.86609547808116e-05
0.000100417405931224
0.000101841756962953
0.000102958883249764
0.000103807677469876
0.000104428296975924
0.000104863520605401
0.000105151575178199
0.00010532772855519
0.000105420947742446
0.00010545574568683
0.000105450968831544
0.00010542152735994
0.000105378149812755
0.000105328764146453
0.000105278592405764
0.000105231136391227
0.000105188334172554
0.000105151205553955
0.000105119969193868
0.000105094448977816
0.000105074137685875
0.00010505841652844
0.000105046583395531
0.000105037966759044
0.000105031925778993
0.00010502790283439
0.000105025409623935
0.000105024046583986
0.00010502348449752
0.000105023467918835
0.000105023797656619
0.000105024327802147
0.000105024951473553
0.00010502559630586
0.000105026214011324
0.000105026776429114
0.000105027268505754
0.000105027685465972
0.000105028028598288
0.000105028303621017
0.000105028518145766
0.000105028680940866
0.000105028800627648
0.000105028885474901
0.000105028942799624
0.000105028979051228
0.000105028999572805
0.000105029008823115
0.000105029010283527
0.000105029006742356
0.000105029000218261
0.000105028992288178
0.000105028983941362
0.00010502897597404
0.000105028968704484
0.00010502896249531
0.000105028957246178
0.000105028953155374
0.000105028949855475
0.000105028947579965
0.000105028945752119
0.000105028944798503
0.000105028943895345
0.000105028943816041
0.000105028943356429
0.000105028943834629
0.000105028943426044
0.000105028944294135
0.000105028943607619
0.000105028944852438
0.00010502894358035
0.000105028945359781
0.000105028943159031
0.000105028945834835
0.000105028942237552
0.000105028946426211
0.000105028940701389
0.000105028947368688
0.00010502893832768
0.000105028948967871
0.000105028934576987
0.000105028949557719
0.000105028897662743
0.000105035875793775
0.00010503403675714
0.000156840374223332
0.00010823605941332
8.6819065671297e-05
7.98710439419411e-05
7.7076856489102e-05
7.6600542709777e-05
7.76476061842166e-05
7.96558664402006e-05
8.22543161403939e-05
8.51293380568365e-05
8.80729736459643e-05
9.09117880255607e-05
9.35402575912414e-05
9.58788862709522e-05
9.78944537776407e-05
9.95734629520806e-05
0.00010093140159674
0.000101993428789991
0.000102797978742362
0.000103384091173366
0.000103793258087617
0.000104062270332156
0.000104225069653423
0.000104309376554464
0.000104338655172032
0.000104330848834762
0.000104300153989003
0.000104256721822275
0.000104208049053634
0.000104159028571618
0.000104112932135284
0.000104071534348205
0.00010403575172713
0.000104005738867247
0.000103981289114498
0.000103961883465014
0.000103946907256566
0.000103935670019864
0.0001039275176978
0.000103921828159874
0.000103918063185793
0.000103915752279902
0.000103914512199563
0.000103914027592105
0.000103914054831523
0.000103914404211869
0.000103914937462118
0.000103915553508609
0.000103916184405647
0.000103916785019173
0.000103917329423018
0.00010391780400862
0.000103918204901517
0.000103918533870215
0.000103918796823482
0.000103919001353164
0.000103919156094374
0.00010391926945693
0.000103919349474189
0.000103919403216827
0.000103919436905405
0.000103919455670743
0.000103919463791119
0.000103919464589841
0.000103919460730501
0.000103919454124936
0.000103919446273957
0.000103919438099344
0.000103919430358506
0.000103919423328053
0.000103919417359158
0.00010391941232339
0.000103919408428634
0.000103919405282301
0.000103919403145409
0.000103919401408838
0.000103919400545874
0.000103919399681842
0.000103919399662657
0.000103919399200969
0.000103919399727058
0.000103919399281519
0.000103919400203196
0.000103919399444607
0.000103919400768105
0.000103919399380668
0.000103919401288
0.000103919398909877
0.00010391940179581
0.000103919397924471
0.000103919402453443
0.000103919396299218
0.000103919403510591
0.000103919393790393
0.000103919405294252
0.000103919389799929
0.000103919405717808
0.000103919332817779
0.000103926531547886
0.000103924451263581
0.000153265639653564
0.000104892658441255
8.49879393923357e-05
7.8618141996041e-05
7.61760326924965e-05
7.59424138985104e-05
7.71423574904407e-05
7.92233492362396e-05
8.18303967832547e-05
8.46660665427256e-05
8.75390210001899e-05
9.02893015109193e-05
9.2822671183585e-05
9.50674122479508e-05
9.6995960633947e-05
9.85978337668898e-05
9.98900566115523e-05
0.000100897871219737
0.000101659124818742
0.000102211656537254
0.000102595624286422
0.000102846356481025
0.00010299645898541
0.000103072404786624
0.000103096615399619
0.00010308614014385
0.000103054473243856
0.000103011200160309
0.000102963398064894
0.000102915641274318
0.000102870981156599
0.000102831037041892
0.000102796629043386
0.000102767853751377
0.000102744478223625
0.000102725975172364
0.00010271173675121
0.000102701086054286
0.000102693387893831
0.000102688039760956
0.000102684523430929
0.000102682386530892
0.00010268126228948
0.000102680849230067
0.000102680915486955
0.000102681280724937
0.000102681814178796
0.000102682420440249
0.00010268303584846
0.000102683618297497
0.000102684143987673
0.000102684600661407
0.000102684985271664
0.000102685300004515
0.000102685550911199
0.000102685745527396
0.000102685892328621
0.000102685999494363
0.000102686074809924
0.0001026861250915
0.000102686156326101
0.000102686173429946
0.000102686180500202
0.000102686180702581
0.000102686176577094
0.000102686169930299
0.000102686162188525
0.000102686154207802
0.000102686146708255
0.000102686139926359
0.000102686134203025
0.000102686129382995
0.000102686125684436
0.000102686122690646
0.000102686120690336
0.000102686119042923
0.000102686118268063
0.000102686117441148
0.000102686117479747
0.000102686117014587
0.000102686117586622
0.000102686117103538
0.000102686118077191
0.000102686117246864
0.000102686118647565
0.000102686117146185
0.000102686119179739
0.000102686116626932
0.000102686119720582
0.000102686115579516
0.000102686120444884
0.00010268611386793
0.000102686121616905
0.000102686111227844
0.000102686123584861