/*--------------------------------*- C++ -*----------------------------------*\
| =========                 |                                                 |
| \\      /  F ield         | OpenFOAM: The Open Source CFD Toolbox           |
|  \\    /   O peration     | Version:  2.3.0                                 |
|   \\  /    A nd           | Web:      www.OpenFOAM.org                      |
|    \\/     M anipulation  |                                                 |
\*---------------------------------------------------------------------------*/
FoamFile
{
    version     2.0;
    format      ascii;
    class       volScalarField;
    location    "25000";
    object      nuTilda;
}
// * * * * * * * * * * * * * * * * * * * * * * * * * * * * * * * * * * * * * //

dimensions      [0 2 -1 0 0 0 0];

internalField   nonuniform List<scalar> 
10000
(
0.000187713842415804
0.000138777844915851
0.000108838843729929
9.12031396388818e-05
8.21992215284185e-05
7.84863517953084e-05
7.75973096885624e-05
7.84627696281597e-05
8.03586947787905e-05
8.29657925906071e-05
8.60258440380773e-05
8.92772254073607e-05
9.25029989069533e-05
9.55287020131506e-05
9.82434223928781e-05
0.000100583144377194
0.000102530797715457
0.000104098011970375
0.000105319475729632
0.000106239422061712
0.000106907653572379
0.000107372025476679
0.000107677240130901
0.000107861677074296
0.000107957957439155
0.000107992138588031
0.000107984935819943
0.000107951906823429
0.000107904672322094
0.000107851368388625
0.000107797609771199
0.000107746911316915
0.000107701357424444
0.00010766190433747
0.00010762880307912
0.000107601791523258
0.000107580342431636
0.000107563759753264
0.000107551308964776
0.000107542256981798
0.000107535932579227
0.000107531733823493
0.000107529149515623
0.000107527750931525
0.000107527194015118
0.00010752720576598
0.000107527578680158
0.000107528157299826
0.000107528830916072
0.000107529522642276
0.000107530183051525
0.00010753078232574
0.00010753130564834
0.000107531748053734
0.000107532111595112
0.000107532402345001
0.000107532628793086
0.000107532800229484
0.000107532926033173
0.0001075330149339
0.000107533074816113
0.000107533112457467
0.000107533133592992
0.000107533142874387
0.00010753314404545
0.000107533139972651
0.00010753313286022
0.000107533124267739
0.000107533115343373
0.000107533106778927
0.000107533099074139
0.000107533092391006
0.000107533086888616
0.000107533082432086
0.000107533079059542
0.000107533076475737
0.000107533074747855
0.000107533073471608
0.000107533072848148
0.00010753307234321
0.000107533072383433
0.000107533072221419
0.000107533072624315
0.000107533072484264
0.00010753307308574
0.000107533072726762
0.000107533073492581
0.000107533072719515
0.000107533073745637
0.00010753307236294
0.000107533073880059
0.000107533071621367
0.000107533074009037
0.000107533070440877
0.000107533074275931
0.000107533068747725
0.000107533075496404
0.000107533162779511
0.000107537677176562
0.00010753780167587
0.00018704127731039
0.000138110720053126
0.000108298314094158
9.08674404100185e-05
8.21238854957699e-05
7.86199796957068e-05
7.78573807989793e-05
7.88083586865953e-05
8.07573858876274e-05
8.34032401665683e-05
8.64900137812839e-05
8.97565730050134e-05
9.29886484286828e-05
9.60140498786606e-05
9.87241780824011e-05
0.000101056622629688
0.000102995838623619
0.000104554368252438
0.000105767627977254
0.0001066801675165
0.000107342013066215
0.000107801026814317
0.000108101897313673
0.000108282889833799
0.000108376525973285
0.000108408725127257
0.00010840009205557
0.000108366065272233
0.000108318174247149
0.000108264467205333
0.000108210494232018
0.000108159712183531
0.000108114164629062
0.000108074773072451
0.000108041765414963
0.000108014861232535
0.000107993522215612
0.00010797704399845
0.000107964687962735
0.000107955718366312
0.000107949463571492
0.00010794532178635
0.000107942782994172
0.000107941419702657
0.000107940889459041
0.000107940920679923
0.000107941307320823
0.000107941895126071
0.000107942574499418
0.000107943269424765
0.000107943931226735
0.000107944530646921
0.000107945053324576
0.000107945494611903
0.000107945856810955
0.000107946146154712
0.00010794637124717
0.000107946541440827
0.000107946666152755
0.000107946754123262
0.00010794681323725
0.000107946850259792
0.000107946870911462
0.000107946879824111
0.000107946880724205
0.000107946876458734
0.000107946869217299
0.000107946860543159
0.00010794685157459
0.000107946842990393
0.000107946835285598
0.00010794682861136
0.000107946823127394
0.000107946818688304
0.000107946815338524
0.000107946812770216
0.0001079468110635
0.000107946809796246
0.000107946809191386
0.000107946808687188
0.000107946808745153
0.000107946808574482
0.000107946808997564
0.000107946808837588
0.000107946809466512
0.000107946809072776
0.000107946809880282
0.00010794680905125
0.000107946810143587
0.000107946808672735
0.00010794681029599
0.000107946807898574
0.000107946810455841
0.000107946806668498
0.000107946810773554
0.000107946804900059
0.000107946812108027
0.000107946901407097
0.000107951582015604
0.000107951562869307
0.000185719830397057
0.00013678543287299
0.00010722490443081
9.02170734425464e-05
8.20130955274152e-05
7.89302672397851e-05
7.83082711008302e-05
7.92488634383073e-05
8.1225868487773e-05
8.39056032284025e-05
8.70148116596733e-05
9.02885475654361e-05
9.35152618201299e-05
9.65267974471721e-05
9.92186413631523e-05
0.0001015313804081
0.000103451704736973
0.000104993333029409
0.000106192281614268
0.000107093157145572
0.000107745821599625
0.000108197800739718
0.000108493429178565
0.000108670613171798
0.000108761565918119
0.000108791939381009
0.000108782125050282
0.000108747388169243
0.000108699125035463
0.000108645279501019
0.000108591323748316
0.000108540655588372
0.000108495276239268
0.000108456076254972
0.000108423263091443
0.000108396543503887
0.00010837537142074
0.000108359038569969
0.000108346805140284
0.000108337936037204
0.000108331761399008
0.0001083276818326
0.000108325189963439
0.000108323860937685
0.000108323354771103
0.000108323402089003
0.000108323798750251
0.000108324392090271
0.000108325073804461
0.000108325768897504
0.000108326429477949
0.000108327026871767
0.000108327547135693
0.000108327985908374
0.000108328345690597
0.000108328632830066
0.000108328855990746
0.000108329024544433
0.000108329147903416
0.000108329234786331
0.00010832929304904
0.000108329329422962
0.000108329349595898
0.000108329358167608
0.000108329358836857
0.000108329354424997
0.000108329347101619
0.000108329338391317
0.000108329329419829
0.00010832932085286
0.000108329313179263
0.000108329306540492
0.000108329301096026
0.000108329296691696
0.000108329293377348
0.000108329290834982
0.000108329289155883
0.000108329287903693
0.000108329287319613
0.000108329286819937
0.000108329286894776
0.000108329286718476
0.000108329287158256
0.00010832928698183
0.000108329287631852
0.000108329287208537
0.000108329288047679
0.000108329287171256
0.000108329288314465
0.000108329286769856
0.000108329288475766
0.000108329285963344
0.000108329288653734
0.000108329284685499
0.000108329289003092
0.000108329282836213
0.00010832929038469
0.000108329373254974
0.000108334149959723
0.000108334098927442
0.000183916550691942
0.000134965667958891
0.00010575756156229
8.93642049052675e-05
8.19400672074971e-05
7.91931987638236e-05
7.86625550933018e-05
7.96469235036079e-05
8.16777036364372e-05
8.44008709606378e-05
8.75321960172528e-05
9.08060083282537e-05
9.40159975250734e-05
9.70000954212976e-05
9.9659537871288e-05
0.000101939016069263
0.000103828155405985
0.000105342161619579
0.000106517769804797
0.000107399584954087
0.000108037185888099
0.000108477574703381
0.00010876454429332
0.000108935439098778
0.00010902198497893
0.000109049396872237
0.000109037713672468
0.000109001905443129
0.000108953140796803
0.000108899181537034
0.000108845365131544
0.000108794986366978
0.000108749974198287
0.000108711166607878
0.000108678737703733
0.000108652373358096
0.000108631516266586
0.000108615453094802
0.000108603443855134
0.000108594755953169
0.000108588723945913
0.000108584753530837
0.000108582342753961
0.000108581071887421
0.000108580605696348
0.000108580678918563
0.000108581090941317
0.000108581691975637
0.000108582376044111
0.000108583069947757
0.000108583727169517
0.000108584320033494
0.000108584835305592
0.000108585269095457
0.000108585624218431
0.000108585907192469
0.000108586126762027
0.000108586292310037
0.000108586413222529
0.000108586498164486
0.000108586554928958
0.000108586590178392
0.000108586609535925
0.000108586617539302
0.000108586617834873
0.000108586613196154
0.000108586605756048
0.000108586597005321
0.000108586588047493
0.000108586579525208
0.000108586571917011
0.000108586565347778
0.000108586559977123
0.000108586555636282
0.000108586552384786
0.000108586549887739
0.000108586548255856
0.000108586547028724
0.000108586546479149
0.000108586545985841
0.000108586546088364
0.000108586545901094
0.000108586546368736
0.000108586546163306
0.000108586546849617
0.00010858654637552
0.00010858654727009
0.000108586546313031
0.000108586547545755
0.000108586545875761
0.000108586547726854
0.000108586545018583
0.000108586547942221
0.000108586543665417
0.000108586548354724
0.000108586541688987
0.000108586549764644
0.000108586624813486
0.000108591567765622
0.000108591419557584
0.000181731573558124
0.000132755203086838
0.000103990067875064
8.83986845901367e-05
8.18500795435754e-05
7.93208766428569e-05
7.89129816325073e-05
7.99830402084704e-05
8.2086111840107e-05
8.48569592981377e-05
8.80064707403185e-05
9.12715702146823e-05
9.44534600749713e-05
9.73977680543783e-05
0.000100012617785722
0.000102247519738015
0.000104095438324271
0.000105573217256263
0.000106718331403343
0.000107575295298285
0.000108193277630645
0.000108618590736067
0.000108894322497396
0.000109057087752256
0.000109137977051784
0.000109161631684061
0.000109147625511569
0.000109110536971571
0.000109061232209068
0.000109007230708973
0.000108953691297999
0.000108903772522945
0.000108859308725074
0.000108821069711582
0.000108789187326009
0.000108763321307291
0.000108742901306792
0.000108727208850841
0.000108715505225614
0.000108707062340698
0.000108701221654625
0.000108697396392961
0.000108695092429327
0.000108693897282891
0.000108693482364899
0.000108693588091827
0.000108694018691262
0.000108694628276599
0.000108695314011128
0.000108696005094403
0.000108696656833328
0.000108697242859645
0.000108697750860081
0.000108698177545918
0.000108698526122206
0.000108698803308082
0.0001086990179335
0.000108699179377446
0.000108699296975595
0.000108699379308734
0.000108699434076283
0.000108699467840914
0.000108699486133775
0.000108699493405554
0.000108699493229773
0.000108699488314046
0.000108699480741218
0.00010869947195616
0.000108699463032705
0.000108699454582625
0.000108699447071259
0.000108699440601548
0.000108699435333957
0.000108699431080544
0.000108699427914338
0.000108699425478094
0.000108699423909018
0.000108699422714478
0.000108699422210151
0.000108699421724056
0.000108699421862776
0.00010869942165957
0.000108699422164139
0.000108699421918909
0.000108699422654204
0.000108699422111467
0.000108699423081625
0.000108699422016117
0.000108699423371213
0.0001086994215327
0.000108699423582118
0.000108699420610406
0.000108699423852308
0.000108699419160102
0.000108699424356164
0.000108699417019015
0.000108699425766245
0.000108699491295774
0.000108704651731191
0.000108704356666334
0.000179239090642893
0.000130235023607997
0.000102000370046718
8.74048396781357e-05
8.16232312470779e-05
7.93177589228391e-05
7.90644253391703e-05
8.02468762834704e-05
8.2431941177915e-05
8.52492140780837e-05
8.84097307427471e-05
9.16560232245269e-05
9.47986527682149e-05
9.76920847936604e-05
0.000100252014589095
0.000102433151523561
0.000104231951503542
0.0001056669073529
0.000106776166746873
0.000107604034181536
0.00010819913048579
0.000108606927875798
0.000108869666212064
0.000109023093803842
0.000109097546405588
0.000109116985962404
0.000109100434842049
0.000109062008167748
0.000109012214417087
0.000108958287743216
0.000108905177371222
0.000108855883154977
0.000108812130115663
0.000108774610306443
0.000108743408392003
0.000108718155557558
0.000108698268260836
0.000108683023873328
0.000108671686823697
0.000108663535660062
0.000108657921049738
0.000108654265912865
0.000108652085974375
0.000108650977743512
0.000108650620782455
0.000108650762407761
0.000108651212681669
0.000108651830385054
0.000108652516411102
0.00010865320278484
0.000108653846944848
0.000108654424035007
0.000108654922794303
0.000108655340611784
0.000108655681117174
0.000108655951237221
0.000108656159877107
0.000108656316389983
0.000108656430034659
0.000108656509278776
0.000108656561700441
0.000108656593736402
0.000108656610803202
0.000108656617244433
0.000108656616544767
0.000108656611332075
0.000108656603629131
0.000108656594826006
0.000108656585961574
0.000108656577611159
0.000108656570225168
0.000108656563880841
0.000108656558740472
0.000108656554593672
0.000108656551530226
0.000108656549166477
0.000108656547671802
0.000108656546515068
0.000108656546063727
0.000108656545584873
0.000108656545765917
0.000108656545542414
0.000108656546090672
0.000108656545796904
0.00010865654659101
0.000108656545965547
0.000108656547027185
0.000108656545831503
0.000108656547335012
0.00010865654529437
0.000108656547584251
0.000108656544296416
0.000108656547923929
0.000108656542732984
0.000108656548542676
0.000108656540398753
0.000108656549918023
0.000108656603910153
0.000108662013492062
0.000108661538189003
0.000176496624113721
0.000127470743556603
9.98562160853223e-05
8.64537303160912e-05
8.1260054838217e-05
7.91979594093121e-05
7.91219789466228e-05
8.04316330149175e-05
8.27010244049604e-05
8.55590730861093e-05
8.87211117440661e-05
9.19378458426747e-05
9.50305933648356e-05
9.78633778158181e-05
0.000100359788511572
0.000102479848245434
0.000104223470439256
0.000105610704625645
0.000106680244458821
0.000107476045934764
0.000108046042535321
0.000108434732239955
0.000108683384354712
0.000108826770561451
0.000108894377578466
0.00010890940816518
0.000108890268816877
0.000108850559937059
0.000108800393420469
0.000108746689009087
0.000108694165972298
0.000108645651584108
0.000108602752990221
0.000108566079633415
0.000108535667215809
0.000108511118099322
0.000108491836656623
0.000108477097835316
0.000108466171342862
0.000108458344527311
0.000108452979380876
0.000108449510415369
0.000108447464890757
0.00010844644971477
0.000108446153772493
0.000108446332208436
0.000108446801650141
0.000108447426093277
0.000108448110567044
0.000108448790205573
0.000108449424772941
0.000108449991045286
0.000108450478882269
0.000108450886383748
0.000108451217608438
0.000108451479678606
0.000108451681553471
0.000108451832533972
0.000108451941774606
0.000108452017602885
0.00010845206745112
0.000108452097608161
0.000108452113357514
0.000108452118919926
0.000108452117678928
0.000108452112172337
0.000108452104355636
0.000108452095557787
0.000108452086779237
0.000108452078555092
0.000108452071320028
0.000108452065123109
0.000108452060129611
0.000108452056104493
0.000108452053157053
0.000108452050874307
0.000108452049462308
0.000108452048346697
0.000108452047953617
0.000108452047481393
0.000108452047708942
0.000108452047461322
0.000108452048058142
0.000108452047708838
0.000108452048569202
0.000108452047850079
0.000108452049015515
0.000108452047673002
0.000108452049345245
0.000108452047076782
0.000108452049640011
0.00010845204599576
0.000108452050061384
0.000108452044307887
0.00010845205081443
0.000108452041759532
0.000108452052119071
0.000108452092480811
0.000108457768276699
0.000108457090361573
0.000173549934110172
0.000124516515640026
9.76182694997884e-05
8.55193551957983e-05
8.07794071066105e-05
7.89752246143492e-05
7.90901569854205e-05
8.05327382025665e-05
8.28830501046623e-05
8.57730310922863e-05
8.89257288408378e-05
9.21020874402267e-05
9.51351507707802e-05
9.78988585476939e-05
0.000100324741445495
0.000102378049785938
0.000104061991976788
0.000105398011872181
0.000106425187093911
0.000107186978892432
0.000107730499643284
0.000108099155786885
0.000108333143696353
0.000108466171550795
0.000108526804786757
0.000108537428428521
0.000108515787088574
0.000108474931307536
0.000108424550655897
0.000108371232327093
0.000108319453671257
0.000108271862079517
0.000108229943014322
0.000108194221997515
0.00010816468629583
0.000108140910715698
0.000108122289529092
0.00010810809745429
0.000108097611736483
0.000108090130620604
0.000108085029331013
0.000108081755603113
0.0001080798496137
0.000108078929784394
0.000108078695215698
0.00010807890956261
0.000108079396534054
0.000108080025711052
0.000108080706519534
0.000108081377372881
0.000108082000466148
0.000108082554262712
0.000108083029764016
0.000108083425781357
0.000108083746784801
0.000108084000067133
0.000108084194613455
0.0001080843396438
0.000108084444181287
0.000108084516388685
0.00010808456353122
0.000108084591731647
0.000108084606125688
0.000108084610799105
0.000108084609025137
0.000108084603244129
0.000108084595339311
0.000108084586574321
0.000108084577909117
0.000108084569836254
0.000108084562774577
0.000108084556743513
0.000108084551912558
0.000108084548020661
0.000108084545198935
0.000108084543003078
0.000108084541679325
0.000108084540606642
0.000108084540275124
0.000108084539808461
0.000108084540085137
0.000108084539810084
0.000108084540458802
0.000108084540048447
0.000108084540980539
0.000108084540159464
0.000108084541438024
0.000108084539936238
0.000108084541792726
0.000108084539277321
0.000108084542139009
0.00010808453810832
0.000108084542652075
0.000108084536288409
0.000108084543555152
0.000108084533511166
0.00010808454475627
0.000108084569508417
0.000108090517944142
0.000108089622293683
0.000170436154327153
0.000121417642842833
9.53424038099014e-05
8.45295884968515e-05
8.01982331300646e-05
7.86612840074864e-05
7.8972835754978e-05
8.05471579874475e-05
8.29707247290651e-05
8.58816854800845e-05
8.90135791214372e-05
9.21391486864236e-05
9.51037448289057e-05
9.77912824012066e-05
0.000100141080223084
0.000102123384454249
0.000103744454290899
0.000105026922949381
0.000106010073732974
0.000106736727790222
0.000107253053458812
0.000107601265273997
0.00010782040351527
0.00010794304607102
0.000107996783805972
0.000108003142958211
0.000107979175382561
0.000107937359580027
0.000107886947592223
0.000107834184433057
0.000107783300102603
0.000107736759783508
0.000107695927025281
0.000107661244715467
0.000107632653844071
0.000107609703977136
0.000107591781831632
0.000107578164331751
0.000107568138523729
0.000107561015513532
0.000107556185442667
0.000107553110644774
0.000107551345325557
0.000107550520279922
0.000107550345481292
0.000107550593573553
0.000107551095689154
0.000107551727222851
0.000107552402143608
0.000107553062225625
0.000107553672133003
0.00010755421202216
0.000107554674022907
0.000107555057635003
0.000107555367707297
0.000107555611669755
0.000107555798501403
0.00010755593731212
0.000107556036967966
0.000107556105445003
0.000107556149823247
0.000107556176044572
0.000107556189085402
0.000107556192887447
0.00010755619060711
0.00010755618458221
0.000107556176620583
0.000107556167917994
0.000107556159392943
0.000107556151494231
0.000107556144625266
0.000107556138775174
0.000107556134118922
0.000107556130368761
0.000107556127679497
0.000107556125574267
0.000107556124342138
0.000107556123313012
0.000107556123044782
0.000107556122582308
0.000107556122909485
0.000107556122604173
0.000107556123306866
0.000107556122831232
0.000107556123838866
0.000107556122909789
0.000107556124308252
0.000107556122638307
0.000107556124690445
0.00010755612191451
0.000107556125093113
0.000107556120654623
0.000107556125705855
0.000107556118698057
0.000107556126771364
0.000107556115682346
0.000107556127841929
0.000107556135242141
0.000107562354923555
0.000107561231322277
0.000167185935396208
0.000118212476243377
9.30815499467738e-05
8.34648378053586e-05
7.95314023751325e-05
7.82658124029423e-05
7.87732877504084e-05
8.04729821690485e-05
8.29591508705218e-05
8.58789441798321e-05
8.89785847319428e-05
9.20436959127763e-05
9.49321796676076e-05
9.75377471564591e-05
9.98072135687587e-05
0.000101715487266761
0.000103271588623446
0.000104499113680772
0.000105437370451634
0.000106128401739956
0.000106617322826602
0.000106945072582039
0.000107149469917532
0.000107261913004844
0.000107308981057667
0.000107311314849287
0.000107285254994679
0.00010724269608164
0.000107192445772007
0.000107140403828632
0.000107090552487093
0.000107045176100543
0.000107005518709067
0.000106971943706472
0.000106944349053974
0.000106922262061892
0.00010690506475262
0.000106892038764842
0.000106882483124121
0.00010687572358224
0.000106871166654033
0.000106868290400541
0.000106866663927307
0.000106865931038887
0.000106865813041303
0.000106866091876478
0.000106866606301877
0.000106867237640796
0.000106867904462212
0.000106868551914433
0.000106869147118012
0.000106869671891875
0.000106870119456368
0.000106870489960153
0.00010687078858883
0.000106871022871465
0.000106871201747618
0.000106871334188537
0.000106871428879631
0.000106871493591104
0.000106871535202702
0.000106871559463714
0.000106871571182582
0.000106871574150501
0.000106871571402672
0.000106871565171253
0.000106871557187011
0.000106871548576596
0.000106871540216928
0.00010687153251272
0.00010687152585269
0.000106871520195615
0.00010687151572313
0.000106871512120633
0.000106871509568106
0.000106871507555499
0.000106871506416599
0.000106871505430758
0.000106871505226289
0.000106871504766466
0.000106871505144517
0.000106871504806597
0.000106871505564303
0.000106871505020299
0.00010687150610588
0.000106871505064683
0.000106871506587638
0.000106871504743687
0.00010687150699932
0.00010687150395399
0.000106871507462202
0.00010687150260193
0.000106871508180751
0.000106871500506501
0.000106871509418057
0.000106871497247092
0.000106871510338174
0.00010687149895343
0.000106877982674879
0.000106876624389092
0.000163824960585562
0.000114933854975778
9.08869954266749e-05
8.2332998582402e-05
7.87919159514422e-05
7.77966723570613e-05
7.84942621057112e-05
8.03091783435936e-05
8.28453713905068e-05
8.57613917889126e-05
8.88178025198956e-05
9.18137554160823e-05
9.46196685441334e-05
9.7138692006213e-05
9.93247489533864e-05
0.000101157016507583
0.000102646965632164
0.000103818922355672
0.000104712044985064
0.000105367470985899
0.000105829169025615
0.000106136734460632
0.000106326715893117
0.000106429297335219
0.000106470023041795
0.000106468633437971
0.000106440749502983
0.000106397678193417
0.000106347782503814
0.00010629661888587
0.00010624792518936
0.000106203809022408
0.000106165399200863
0.000106132984045752
0.000106106422403121
0.000106085222697409
0.000106068765244297
0.000106056338857866
0.000106047256572792
0.000106040860363842
0.000106036574346806
0.000106033893208901
0.000106032401611475
0.000106031756811659
0.000106031691741412
0.000106031997810101
0.000106032521488383
0.000106033150052881
0.000106033806660423
0.000106034439794837
0.000106035018983135
0.000106035527650086
0.000106035960052163
0.000106036316936299
0.000106036603777487
0.000106036828163786
0.000106036998962213
0.000106037124978615
0.000106037214696691
0.00010603727566451
0.000106037314549386
0.000106037336899092
0.000106037347347884
0.000106037349532175
0.000106037346363401
0.000106037339966496
0.000106037331994632
0.000106037323505149
0.000106037315333891
0.000106037307841823
0.000106037301403949
0.000106037295949121
0.000106037291666751
0.00010603728821564
0.000106037285802067
0.000106037283882672
0.000106037282837184
0.000106037281893682
0.000106037281752462
0.000106037281293682
0.000106037281722187
0.000106037281349777
0.000106037282162673
0.000106037281548217
0.000106037282712948
0.000106037281557188
0.000106037283207319
0.000106037281186132
0.000106037283650007
0.000106037280330467
0.000106037284175968
0.000106037278886269
0.000106037285004752
0.00010603727665174
0.000106037286420455
0.000106037273147074
0.000106037287177774
0.000106037255920227
0.000106043992118476
0.000106042395033204
0.000160375041038757
0.000111610232891001
8.88065992656711e-05
8.11491786671198e-05
7.79907782996672e-05
7.726018513554e-05
7.81380950369018e-05
8.00554501081261e-05
8.26280306901597e-05
8.55277839697133e-05
8.85307816877298e-05
9.14499756091571e-05
9.41680414636672e-05
9.65970853265784e-05
9.86976829675904e-05
0.000100452862531651
0.00010187623022104
0.000102992613583026
0.000103840859251536
0.000104461086086098
0.00010489603848508
0.000105183915387767
0.000105359960830446
0.000105453123117884
0.00010548789986062
0.000105483125914531
0.000105453702382059
0.000105410351292805
0.00010536099578877
0.000105310854733818
0.000105263427784351
0.000105220651814138
0.000105183545990571
0.000105152328826647
0.000105126824306603
0.000105106525515118
0.000105090814038136
0.000105078988194453
0.000105070376867371
0.000105064339610434
0.000105060319145566
0.000105057827472063
0.000105056465272413
0.000105055903532476
0.000105055886964012
0.000105056216498511
0.000105056746317203
0.000105057369604122
0.000105058014038903
0.000105058631363571
0.000105059193434654
0.000105059685207954
0.000105060101911141
0.000105060444831938
0.000105060719685136
0.000105060934077646
0.000105061096772396
0.0001050612163854
0.000105061301180353
0.000105061358469739
0.000105061394698998
0.000105061415207925
0.000105061424452533
0.000105061425912045
0.000105061422373056
0.000105061415852983
0.000105061407927788
0.000105061399586117
0.000105061391623706
0.000105061384358631
0.000105061378153286
0.000105061372907389
0.000105061368819106
0.000105061365521241
0.000105061363247134
0.000105061361420415
0.000105061360467387
0.000105061359564786
0.00010506135948553
0.000105061359026201
0.000105061359504107
0.000105061359095774
0.000105061359963329
0.000105061359277237
0.000105061360521289
0.000105061359249985
0.000105061361028319
0.000105061358828925
0.00010506136150308
0.000105061357908014
0.000105061362094091
0.000105061356372798
0.000105061363035987
0.000105061354000552
0.000105061364634184
0.000105061350252171
0.000105061365223669
0.000105061313360681
0.000105068287190712
0.000105066449287492
0.00015685492005237
0.000108266584977824
8.68664717036002e-05
7.99270304490557e-05
7.71369616073116e-05
7.66613949736437e-05
7.77068339667721e-05
7.97121548737865e-05
8.23071146435188e-05
8.51786397915896e-05
8.81190426046743e-05
9.09550309510776e-05
9.35811091885609e-05
9.59177729420658e-05
9.79317583852653e-05
9.96095221520747e-05
0.00010096649855376
0.000102027799750978
0.000102831814594857
0.000103417545022058
0.000103826449076164
0.000104095290182629
0.000104257986577015
0.000104342240365424
0.000104371500567752
0.000104363699138886
0.000104333023603842
0.000104289618790197
0.000104240976715665
0.000104191987190432
0.000104145919904131
0.000104104548328741
0.000104068788389175
0.000104038794571538
0.000104014360343574
0.000103994967023816
0.000103980000335479
0.000103968770244785
0.000103960623108412
0.000103954937190321
0.000103951174611943
0.00010394886517664
0.00010394762588549
0.000103947141586444
0.000103947168808527
0.000103947517966521
0.000103948050877404
0.000103948666531843
0.000103949297027387
0.000103949897258696
0.0001039504413161
0.000103950915599697
0.000103951316237486
0.000103951644996848
0.000103951907782788
0.000103952112182321
0.000103952266825064
0.000103952380115485
0.000103952460081827
0.000103952513790267
0.000103952547457408
0.000103952566210806
0.000103952574326015
0.000103952575124229
0.000103952571267344
0.000103952564665983
0.000103952556819999
0.000103952548650587
0.000103952540914676
0.000103952533888696
0.000103952527923599
0.000103952522891035
0.000103952518998758
0.000103952515854427
0.000103952513718895
0.000103952511983429
0.000103952511121014
0.000103952510257531
0.000103952510238359
0.000103952509776965
0.000103952510302719
0.000103952509857464
0.000103952510778554
0.000103952510020447
0.000103952511343104
0.00010395250995655
0.000103952511862667
0.000103952509486058
0.000103952512370155
0.000103952508501279
0.000103952513027369
0.00010395250687706
0.000103952514083844
0.000103952504369832
0.00010395251586637
0.000103952500381907
0.000103952516289657
0.000103952443436016
0.00010395963758587
0.000103957558625066
0.000153280871619656
0.000104925158282501
8.50374048863812e-05
7.86759213005945e-05
7.62375626177422e-05
7.6004321586207e-05
7.7202360938524e-05
7.92802519762669e-05
8.18837421440963e-05
8.47159078611247e-05
8.75856523325883e-05
9.03331414556986e-05
9.2864155579099e-05
9.51069643672048e-05
9.7033958346273e-05
9.86346089156974e-05
9.99258879686164e-05
0.000100932991470984
0.000101693721862108
0.000102245881107826
0.000102629593544211
0.000102880160556037
0.000103030164747985
0.000103106060970232
0.000103130255801016
0.000103119787372408
0.000103088141123681
0.000103044896290988
0.00010299712544451
0.000102949399916638
0.000102904769073779
0.000102864851174817
0.000102830465783087
0.000102801709414445
0.000102778349270712
0.000102759858404201
0.000102745629363898
0.00010273498568663
0.000102727292601233
0.000102721947994815
0.000102718433983689
0.000102716298492982
0.000102715174993066
0.000102714762206092
0.000102714828419279
0.000102715193416363
0.000102715726518379
0.000102716332379974
0.000102716947382302
0.000102717529447201
0.000102718054790678
0.000102718511163234
0.000102718895519842
0.000102719210045131
0.000102719460786346
0.000102719655274198
0.000102719801978611
0.00010271990907368
0.000102719984339573
0.00010272003458799
0.000102720065801993
0.000102720082894558
0.000102720089960151
0.000102720090162397
0.00010272008603963
0.000102720079397219
0.000102720071660551
0.00010272006368509
0.000102720056190489
0.000102720049413066
0.000102720043693506
0.000102720038876655
0.000102720035180535
0.000102720032188719
0.000102720030189728
0.000102720028543402
0.000102720027769052
0.000102720026942683
0.000102720026981257
0.000102720026516403
0.000102720027088061
0.000102720026605295
0.000102720027578307
0.000102720026748527
0.000102720028148305
0.000102720026647914
0.000102720028680127
0.000102720026129004
0.000102720029220614
0.000102720025082278
0.000102720029944438
0.000102720023371821
0.000102720031115686