/*--------------------------------*- C++ -*----------------------------------*\
| =========                 |                                                 |
| \\      /  F ield         | OpenFOAM: The Open Source CFD Toolbox           |
|  \\    /   O peration     | Version:  2.3.0                                 |
|   \\  /    A nd           | Web:      www.OpenFOAM.org                      |
|    \\/     M anipulation  |                                                 |
\*---------------------------------------------------------------------------*/
FoamFile
{
    version     2.0;
    format      ascii;
    class       volScalarField;
    location    "25000";
    object      p;
}
// * * * * * * * * * * * * * * * * * * * * * * * * * * * * * * * * * * * * * //

dimensions      [0 2 -2 0 0 0 0];

internalField   nonuniform List<scalar> 
10000
(
2.25756943144535
2.16341999619887
2.18052635295148
2.11980350453993
2.12062942808477
2.07754711064216
2.06850270934306
2.03503051351893
2.02057264464118
1.99234244299552
1.97490246907529
1.94953959384909
1.93038467998197
1.90657928942411
1.88637819281819
1.86340168742685
1.84252882153236
1.81998114883062
1.79866571756098
1.77633434390149
1.75472750971809
1.73250422534654
1.71070904999512
1.68854105499164
1.66662760464787
1.64448993866162
1.62250474020672
1.60038562801505
1.57835856637756
1.55625211869332
1.53420167086939
1.51210450298015
1.49004162409195
1.46795142521404
1.44588231197505
1.4237972964828
1.40172526950401
1.3796440065134
1.3575707350387
1.33549209319296
1.31341834805039
1.29134146437572
1.26926756046723
1.24719180559308
1.22511784727947
1.20304278365882
1.18096879126131
1.15889412931373
1.13682009823366
1.11474565587635
1.09267158018759
1.07059724909857
1.04852312821578
1.02644884792054
1.00437468624443
0.982300425555575
0.960226230275603
0.938151974931098
0.916077753822522
0.894003498636629
0.871929258543739
0.84985500283077
0.827780748868202
0.805706494035898
0.783632229272876
0.761557977795784
0.739483703126708
0.717409458382653
0.695335172363806
0.673260939062253
0.651186637482753
0.629112422602603
0.607038097600636
0.584963911916167
0.562889550322127
0.540815410798773
0.518740991349804
0.496666924881452
0.47459241366461
0.452518462960372
0.43044380608914
0.408370038983068
0.386295150926079
0.364221675126784
0.342146420144564
0.320073406633809
0.29799756929612
0.275925289463689
0.253848527863546
0.23177741244498
0.20969918393689
0.18762991656333
0.165549359899564
0.143483025571457
0.121398773856664
0.0993370942379794
0.0772469700571894
0.0551924415198285
0.0330888751210896
0.0108786736480937
2.25749797101642
2.16339676488724
2.18051050325909
2.11979334891942
2.12062027647038
2.07754039079002
2.06849649491627
2.0350258668181
2.02056859099644
1.99233960106542
1.97490024111526
1.94953828102274
1.93038385577207
1.90657906212009
1.88637824961938
1.86340205258673
1.84252928436805
1.81998171619697
1.79866626559171
1.77633488532524
1.75472798140361
1.7325046465876
1.71070939369389
1.68854134201484
1.66662782636933
1.64449011360357
1.62250486779103
1.60038572273696
1.5783586303247
1.55625216222508
1.53420169633644
1.51210451725654
1.49004162894753
1.46795142490913
1.44588230755692
1.42379729039305
1.4017252622166
1.37964399931726
1.35757072804053
1.33549208699505
1.31341834256268
1.29134145982404
1.26926755668356
1.24719180261871
1.22511784493862
1.20304278191755
1.18096878996997
1.15889412841937
1.13682009762359
1.11474565550326
1.09267157997421
1.07059724901097
1.04852312820526
1.02644884796624
1.00437468631801
0.982300425646116
0.960226230368357
0.93815197502167
0.916077753904424
0.894003498709062
0.87192925860484
0.849855002881289
0.827780748908666
0.805706494067311
0.783632229296958
0.761557977813006
0.73948370313951
0.717409458390459
0.695335172369804
0.673260939064355
0.651186637485334
0.62911242260145
0.607038097602152
0.584963911913053
0.562889550324186
0.540815410794046
0.518740991353643
0.496666924874673
0.474592413671483
0.452518462950351
0.430443806100713
0.408370038967719
0.386295150944896
0.364221675102762
0.342146420174669
0.320073406595841
0.297997569343992
0.27592528940347
0.253848527939534
0.231777412349396
0.209699184057475
0.187629916411613
0.165549360090937
0.143483025330623
0.121398774159524
0.0993370938281517
0.0772469700868189
0.0551924223566676
0.0330888752367448
0.0108799492785044
2.25749001460424
2.16338820921873
2.18050725109931
2.11979109291192
2.12061849588206
2.07753874803368
2.06849523307833
2.0350246910804
2.02056770329183
1.99233881770681
1.9748996744696
1.94953783149521
1.93038356638906
1.90657887177024
1.88637816277476
1.86340202817304
1.84252931357684
1.81998177283832
1.79866634110471
1.77633496523338
1.75472806116908
1.73250471960575
1.7107094588457
1.68854139716715
1.666627872278
1.64449015026151
1.6225048966246
1.60038574451468
1.57835864647435
1.55625217362717
1.53420170414289
1.51210452219424
1.49004163183563
1.46795142625726
1.44588230789133
1.42379729002656
1.40172526145585
1.37964399833132
1.35757072698986
1.33549208595546
1.31341834160509
1.29134145897029
1.26926755595511
1.24719180201053
1.22511784444843
1.20304278153005
1.18096878967407
1.15889412819841
1.13682009746534
1.1147456553937
1.0926715799032
1.07059724896828
1.04852312818372
1.02644884795914
1.00437468632081
0.982300425654812
0.960226230380429
0.938151975034995
0.916077753917823
0.894003498721582
0.871929258616093
0.849855002890968
0.827780748916796
0.80570649407389
0.783632229302196
0.761557977817002
0.739483703142535
0.717409458392597
0.695335172371343
0.673260939065299
0.651186637485992
0.629112422601704
0.607038097602367
0.584963911912945
0.562889550324247
0.540815410793755
0.518740991353727
0.496666924874267
0.474592413671708
0.452518462949813
0.430443806101179
0.408370038966965
0.38629515094572
0.364221675101636
0.342146420176033
0.320073406594094
0.297997569346185
0.275925289400716
0.253848527943025
0.231777412345028
0.209699184063016
0.18762991640468
0.16554936009973
0.143483025319621
0.121398774173513
0.0993370938114911
0.0772469701205006
0.0551924226158077
0.0330888706167049
0.0108825191569646
2.25750276959433
2.16338210187626
2.180507929734
2.11979064388913
2.12061900045369
2.0775382608683
2.06849548590769
2.03502431428549
2.02056774783783
1.99233848640576
1.9748995755771
1.94953753344701
1.93038341280749
1.90657862870474
1.88637802005786
1.863401853502
1.84252921006516
1.81998166174491
1.79866627814781
1.77633490236906
1.75472802892369
1.73250468851233
1.71070944604877
1.6885413847118
1.66662787008127
1.64449014751026
1.62250489922476
1.60038574604399
1.57835865054285
1.55625217647765
1.53420170803021
1.51210452495473
1.49004163490039
1.46795142839916
1.44588231002909
1.42379729147575
1.40172526280544
1.37964399920196
1.35757072775834
1.33549208641256
1.31341834198938
1.29134145916547
1.2692675561099
1.24719180205884
1.22511784448113
1.20304278150819
1.18096878965187
1.15889412815188
1.13682009742597
1.11474565534608
1.0926715798651
1.07059724892948
1.04852312815391
1.02644884793147
1.00437468630041
0.982300425637095
0.960226230367972
0.9381519750248
0.91607775391109
0.89400349871646
0.871929258613021
0.849855002888947
0.827780748915792
0.805706494073584
0.783632229302165
0.761557977817542
0.739483703142783
0.717409458393516
0.695335172371455
0.673260939066423
0.651186637485707
0.629112422603066
0.607038097601476
0.584963911914742
0.5628895503225
0.540815410796348
0.518740991350737
0.496666924878225
0.474592413666839
0.452518462956011
0.430443806093392
0.40837003897677
0.386295150933345
0.364221675117196
0.342146420156397
0.320073406618802
0.297997569315032
0.275925289439943
0.253848527893593
0.231777412407296
0.209699183984568
0.187629916503509
0.165549359975225
0.143483025476487
0.121398773976251
0.0993370940710263
0.0772469699751263
0.0551924297157071
0.0330888639409174
0.0108861302412819
2.25751884515501
2.16337423735797
2.18050885420434
2.11978992986
2.12061966706627
2.07753760350794
2.06849583626562
2.03502381275269
2.02056781516368
1.99233805210724
1.97489945908562
1.94953715153694
1.9303832279393
1.90657832215899
1.88637784815505
1.86340163522507
1.84252908573781
1.81998152365675
1.79866620292392
1.77633482448381
1.75472799080192
1.73250465008595
1.71070943134424
1.68854136936414
1.66662786805712
1.64449014414783
1.62250490285255
1.60038574795
1.5783586558081
1.55625217999637
1.53420171296177
1.5121045283493
1.49004163875038
1.46795143102313
1.44588231269733
1.42379729324408
1.40172526448201
1.37964400025875
1.35757072870891
1.3354920869627
1.31341834246243
1.29134145939619
1.26926755629899
1.2471918021116
1.22511784451985
1.20304278147688
1.18096878962343
1.15889412809191
1.13682009737688
1.11474565528594
1.09267157981793
1.07059724888092
1.04852312811716
1.02644884789703
1.00437468627537
0.982300425615162
0.960226230352756
0.938151975012242
0.916077753902917
0.894003498710196
0.87192925860933
0.849855002886518
0.827780748914613
0.805706494073268
0.783632229302146
0.761557977818274
0.739483703143068
0.71740945839473
0.695335172371525
0.673260939067921
0.651186637485227
0.629112422604914
0.607038097600166
0.584963911917224
0.562889550320007
0.540815410799969
0.518740991346511
0.496666924883778
0.47459241365998
0.452518462964726
0.430443806082437
0.408370038990565
0.386295150915937
0.364221675139089
0.342146420128774
0.320073406653562
0.297997569271208
0.275925289495128
0.253848527824052
0.231777412494891
0.209699183874208
0.187629916642537
0.165549359800071
0.143483025697156
0.121398773698673
0.0993370944342789
0.0772469697383063
0.0551924385572844
0.033088855802772
0.0108906463188751
2.25753645206815
2.1633647381891
2.18050964205794
2.11978892879027
2.12062028889696
2.07753677703147
2.06849614399611
2.03502317940637
2.02056782475833
1.99233751517462
1.97489928726388
1.94953669666706
1.93038300193354
1.90657796991387
1.88637765178012
1.86340139248979
1.84252895038542
1.8199813751627
1.79866612507071
1.77633474404689
1.75472795422238
1.7325046127337
1.71070941963017
1.68854135627023
1.66662786903324
1.6444901430187
1.62250490889766
1.60038575160959
1.57835866278199
1.5562521847117
1.53420171898162
1.51210453246969
1.49004164322522
1.46795143403329
1.44588231568142
1.42379729518308
1.40172526628906
1.3796440013638
1.35757072969001
1.33549208750114
1.31341834292015
1.29134145959283
1.26926755645766
1.24719180212776
1.22511784452838
1.2030427814151
1.18096878957106
1.15889412800993
1.13682009731125
1.11474565521154
1.09267157976056
1.07059724882404
1.04852312807483
1.02644884785831
1.00437468624776
0.982300425591427
0.960226230336704
0.93815197499924
0.916077753894781
0.894003498704124
0.871929258606022
0.849855002884504
0.827780748913876
0.805706494073382
0.783632229302495
0.761557977819367
0.739483703143599
0.717409458396226
0.695335172371714
0.673260939069644
0.651186637484745
0.629112422606975
0.607038097598734
0.584963911919958
0.562889550317258
0.540815410803946
0.518740991341849
0.496666924889881
0.47459241365242
0.452518462974311
0.430443806070371
0.408370039005744
0.386295150896771
0.364221675163183
0.342146420098366
0.320073406691822
0.297997569222965
0.275925289555872
0.253848527747503
0.231777412591311
0.209699183752725
0.187629916795571
0.165549359607265
0.143483025940056
0.121398773393122
0.0993370948342912
0.0772469694774969
0.0551924484532523
0.0330888463413474
0.0108959317018087
2.25755590453772
2.16335410719823
2.18051038375259
2.11978780034546
2.1206209189675
2.0775358899892
2.06849644233619
2.03502248816405
2.02056780544697
1.99233692506441
1.97489908121634
1.9495361987942
1.93038274661852
1.90657758700146
1.8863774347134
1.86340113042003
1.84252880269913
1.81998121602287
1.79866604108127
1.77633465868792
1.75472791538862
1.73250457376547
1.71070940773389
1.68854134320414
1.66662787071775
1.64449014256063
1.62250491587589
1.60038575605588
1.57835867059691
1.55625219009749
1.53420172563965
1.51210453707644
1.49004164813
1.46795143735569
1.4458823189265
1.42379729730157
1.40172526823798
1.37964400255831
1.3575707307369
1.33549208807444
1.31341834340002
1.29134145979511
1.26926755661658
1.2471918021365
1.22511784452836
1.20304278134204
1.18096878950836
1.15889412791733
1.13682009723667
1.11474565512889
1.0926715796966
1.07059724876149
1.04852312802818
1.02644884781608
1.00437468621762
0.982300425565759
0.960226230319361
0.938151974985326
0.916077753886115
0.894003498697737
0.871929258602599
0.84985500288248
0.827780748913214
0.805706494073614
0.783632229302977
0.761557977820611
0.739483703144252
0.717409458397861
0.695335172371987
0.673260939071486
0.651186637484296
0.629112422609139
0.607038097597282
0.584963911922799
0.562889550314431
0.540815410808061
0.518740991337039
0.496666924896185
0.474592413644613
0.452518462984206
0.430443806057908
0.408370039021414
0.386295150876976
0.364221675188061
0.342146420066964
0.320073406731329
0.297997569173149
0.275925289618596
0.253848527668457
0.231777412690875
0.209699183627279
0.187629916953595
0.165549359408168
0.143483026190877
0.121398773077621
0.0993370952481561
0.0772469692188361
0.0551924593039057
0.0330888357463419
0.0109018622566332
2.25757709273051
2.16334262373312
2.18051109382713
2.11978661547562
2.12062155990094
2.07753498262177
2.06849673307922
2.03502176803715
2.02056776370652
1.99233630359452
1.97489884936882
1.9495356737676
1.93038246936233
1.90657718376703
1.88637720175314
1.86340085483771
1.84252864498296
1.81998104891996
1.79866595156778
1.77633456927066
1.75472787403715
1.7325045331643
1.71070939507371
1.68854132982298
1.66662787251213
1.64449014238412
1.62250492329858
1.60038576096709
1.57835867890347
1.55625219592788
1.53420173271034
1.51210454202973
1.49004165333273
1.46795144091444
1.44588232236391
1.42379729956526
1.40172527029866
1.37964400383203
1.35757073184072
1.33549208868438
1.31341834390334
1.29134146000946
1.26926755678078
1.24719180214497
1.22511784452525
1.20304278126377
1.18096878943982
1.15889412781856
1.13682009715632
1.1147456550409
1.09267157962805
1.070597248695
1.04852312797833
1.02644884777125
1.00437468618549
0.982300425538561
0.960226230300911
0.93815197497062
0.916077753876923
0.894003498691014
0.871929258598992
0.849855002880374
0.827780748912545
0.805706494073884
0.783632229303524
0.761557977821933
0.739483703144985
0.717409458399574
0.695335172372326
0.673260939073389
0.651186637483892
0.629112422611347
0.607038097595853
0.58496391192567
0.562889550311608
0.540815410812199
0.518740991332217
0.496666924902512
0.47459241363678
0.452518462994134
0.430443806045401
0.408370039037136
0.386295150857113
0.364221675213021
0.342146420035453
0.320073406770967
0.297997569123164
0.275925289681531
0.253848527589145
0.231777412790772
0.20969918350141
0.187629917112149
0.165549359208399
0.143483026442538
0.121398772761079
0.0993370956642763
0.077246968971351
0.0551924709042266
0.0330888242508926
0.0109083285592316
2.25759969886079
2.16333046369272
2.18051174677022
2.1197854070218
2.12062219111515
2.07753406649301
2.06849700312673
2.03502102850031
2.02056769543205
1.99233566028098
1.97489859381762
1.94953513087763
1.93038217486469
1.90657676813472
1.88637695761562
1.86340057162691
1.84252848080967
1.81998087770465
1.79866585879539
1.77633447804968
1.75472783139708
1.73250449210038
1.71070938219516
1.68854131663857
1.66662787457015
1.64449014264272
1.62250493112764
1.60038576632728
1.57835868759185
1.55625220212492
1.53420174007549
1.5121045472439
1.49004165873452
1.46795144463895
1.44588232592192
1.42379730192425
1.40172527242409
1.37964400515365
1.35757073297362
1.33549208931359
1.31341834441544
1.29134146022774
1.26926755694376
1.24719180215043
1.22511784451711
1.20304278118032
1.1809687893657
1.15889412771478
1.13682009707126
1.11474565494899
1.09267157955609
1.0705972486258
1.04852312792625
1.02644884772475
1.00437468615205
0.982300425510448
0.960226230281799
0.938151974955489
0.91607775386746
0.894003498684151
0.871929258595328
0.849855002878271
0.827780748911916
0.805706494074214
0.783632229304145
0.761557977823322
0.739483703145793
0.717409458401338
0.695335172372728
0.673260939075319
0.65118663748354
0.629112422613555
0.607038097594474
0.584963911928514
0.562889550308845
0.540815410816276
0.518740991327479
0.496666924908737
0.474592413629075
0.452518463003897
0.430443806033097
0.408370039052597
0.386295150837573
0.364221675237569
0.342146420004459
0.320073406809955
0.297997569073998
0.275925289743434
0.253848527511131
0.231777412889033
0.209699183377604
0.187629917268104
0.165549359011904
0.143483026690076
0.121398772449739
0.0993370960743728
0.0772469687391175
0.0551924830112619
0.0330888120836992
0.0109152341357107
2.25762342500988
2.16331777683292
2.18051232112986
2.11978419465792
2.12062279492445
2.07753314842664
2.06849724160792
2.03502027579172
2.0205675974447
1.99233500228009
1.97489831661448
1.94953457753791
1.93038186729613
1.90657634660569
1.88637670645837
1.86340028571319
1.84252831335667
1.81998070566155
1.79866576481688
1.77633438698472
1.75472778861432
1.73250445161208
1.71070936963293
1.688541304118
1.66662787706724
1.64449014348612
1.62250493935604
1.60038577213223
1.57835869658139
1.55625220862544
1.5342017476399
1.51210455264587
1.49004166425269
1.46795144846759
1.44588232953915
1.42379730433417
1.40172527457332
1.37964400649479
1.35757073411094
1.335492089946
1.31341834492307
1.29134146044213
1.26926755709947
1.24719180215002
1.22511784450196
1.20304278109143
1.18096878928604
1.15889412760686
1.13682009698235
1.11474565485429
1.09267157948169
1.07059724855493
1.04852312787278
1.02644884767737
1.00437468611794
0.982300425481958
0.960226230262422
0.938151974940262
0.916077753857954
0.894003498677327
0.87192925859172
0.849855002876254
0.827780748911376
0.805706494074627
0.783632229304853
0.761557977824773
0.739483703146674
0.717409458403135
0.695335172373193
0.673260939077249
0.651186637483247
0.629112422615731
0.607038097593164
0.584963911931287
0.562889550306179
0.540815410820234
0.518740991322891
0.496666924914769
0.474592413621607
0.452518463013356
0.430443806021172
0.408370039067576
0.386295150818635
0.364221675261354
0.342146419974423
0.320073406847733
0.297997569026354
0.275925289803417
0.253848527435537
0.231777412984249
0.209699183257636
0.187629917419225
0.165549358821498
0.14348302692994
0.121398772148065
0.0993370964724673
0.0772469685242162
0.0551924954085644
0.033088799452258
0.0109224935637709
2.25764802301328
2.16330469762713
2.18051280432803
2.11978298956524
2.12062335930705
2.07753223394037
2.0684974416152
2.0350195153516
2.02056746874045
1.99233433590108
1.97489802048483
1.94953402006586
1.93038155055676
1.90657592452437
1.88637645186621
1.86340000102685
1.84252814521815
1.81998053534214
1.79866567124685
1.77633429755318
1.75472774655356
1.73250441244977
1.71070935776408
1.68854129257315
1.66662788010401
1.64449014499118
1.62250494795095
1.60038577835134
1.57835870579099
1.55625221536315
1.53420175531854
1.51210455816907
1.4900416698172
1.4679514523476
1.44588233316544
1.42379730675856
1.40172527671393
1.37964400783301
1.35757073523379
1.33549209056937
1.31341834541651
1.29134146064705
1.26926755724379
1.24719180214198
1.22511784447874
1.20304278099727
1.18096878920122
1.15889412749571
1.13682009689044
1.11474565475786
1.09267157940576
1.07059724848328
1.04852312781865
1.02644884762977
1.00437468608364
0.982300425453521
0.960226230243095
0.938151974925192
0.91607775384858
0.894003498670671
0.871929258588253
0.849855002874376
0.827780748910954
0.805706494075138
0.78363222930565
0.761557977826277
0.739483703147621
0.717409458404945
0.695335172373711
0.673260939079157
0.651186637483012
0.629112422617849
0.607038097591933
0.58496391193396
0.562889550303635
0.540815410824031
0.518740991318497
0.496666924920548
0.47459241361445
0.452518463022414
0.430443806009743
0.408370039081923
0.38629515080049
0.36422167528414
0.342146419945645
0.320073406883926
0.297997568980708
0.275925289860887
0.253848527363112
0.231777413075472
0.209699183142698
0.187629917564009
0.165549358639078
0.143483027159747
0.121398771859057
0.0993370968544929
0.0772469683274038
0.0551925079138513
0.033088786540432
0.0109300311779888
2.25767327936906
2.16329134353203
2.18051319036167
2.1197817986131
2.12062387583436
2.07753132688007
2.06849759876156
2.03501875157135
2.02056730960521
1.99233366647195
1.97489770838307
1.94953346371171
1.930381228178
1.90657550622703
1.88637619688497
1.86339972069234
1.84252797852206
1.81998036873792
1.79866557937612
1.77633421088333
1.7547277058865
1.73250437516708
1.710709346867
1.68854128221747
1.66662788374114
1.64449014719383
1.62250495687175
1.60038578494346
1.57835871514658
1.55625222227501
1.53420176303823
1.51210456375482
1.49004167536964
1.46795145623424
1.44588233675988
1.42379730916731
1.40172527882002
1.37964400915019
1.35757073632743
1.33549209117415
1.31341834588844
1.29134146083834
1.26926755737386
1.24719180212519
1.22511784444694
1.20304278089815
1.18096878911176
1.15889412738218
1.13682009679637
1.1147456546606
1.09267157932906
1.0705972484116
1.04852312776446
1.02644884758249
1.00437468604959
0.982300425425483
0.960226230224072
0.938151974910477
0.916077753839475
0.894003498664285
0.871929258584989
0.849855002872678
0.82778074891067
0.80570649407575
0.783632229306535
0.761557977827824
0.739483703148626
0.717409458406752
0.695335172374278
0.673260939081028
0.651186637482832
0.629112422619894
0.607038097590786
0.584963911936514
0.562889550301227
0.540815410827642
0.518740991314325
0.496666924926035
0.474592413607652
0.452518463031014
0.430443805998887
0.408370039095545
0.386295150783255
0.364221675305776
0.342146419918316
0.320073406918296
0.297997568937362
0.275925289915461
0.253848527294336
0.2317774131621
0.209699183033553
0.187629917701501
0.165549358465848
0.143483027377977
0.12139877158462
0.0993370972178151
0.0772469681485233
0.0551925203737328
0.0330887735089258
0.0109377800689963
2.25769900610413
2.16327781547064
2.18051348080488
2.11978062722728
2.12062433846707
2.07753042957535
2.06849771035755
2.03501798786783
2.02056712111188
1.9923329984003
1.97489738325546
1.94953291277021
1.93038090329424
1.90657509519243
1.88637594405992
1.86339944717579
1.84252781500851
1.81998020739954
1.79866549024079
1.77633412783884
1.75472766714134
1.73250434017535
1.71070933715222
1.68854127319793
1.66662788801628
1.64449015010614
1.62250496607778
1.60038579186467
1.57835872458357
1.55625222930392
1.53420177073736
1.51210456935249
1.49004168086182
1.46795146008986
1.44588234028924
1.4237973115356
1.4017252808709
1.37964401043171
1.35757073738034
1.33549209175278
1.31341834633332
1.29134146101282
1.26926755748761
1.24719180209889
1.22511784440633
1.20304278079448
1.1809687890182
1.15889412726706
1.13682009670087
1.11474565456329
1.09267157925229
1.07059724834051
1.04852312771072
1.02644884753597
1.00437468601611
0.98230042539812
0.960226230205557
0.938151974896275
0.916077753830748
0.894003498658244
0.871929258581976
0.849855002871188
0.827780748910537
0.805706494076469
0.783632229307506
0.761557977829406
0.739483703149681
0.717409458408547
0.695335172374884
0.673260939082848
0.651186637482706
0.629112422621852
0.607038097589725
0.584963911938935
0.562889550298965
0.540815410831049
0.518740991310391
0.496666924931207
0.474592413601239
0.452518463039119
0.430443805988648
0.408370039108385
0.386295150767003
0.364221675326174
0.342146419892547
0.320073406950701
0.297997568896493
0.27592528996692
0.253848527229491
0.231777413243781
0.209699182930643
0.187629917831141
0.165549358302516
0.143483027583744
0.12139877132587
0.0993370975608456
0.0772469679868576
0.0551925326598438
0.0330887604962355
0.0109456812040221
2.2577250373001
2.16326420019773
2.18051368469385
2.11977948006627
2.12062474302802
2.07752954328283
2.06849777507245
2.03501722695571
2.02056690491857
1.99233233535408
1.97489704796714
1.94953237073679
1.93038057864664
1.90657469417901
1.88637569549864
1.8633991823904
1.84252765607608
1.81998005250754
1.79866540465412
1.77633404906169
1.75472763072103
1.73250430776728
1.71070932877122
1.68854126560685
1.66662789294699
1.64449015372119
1.62250497552829
1.60038579906979
1.57835873404553
1.55625223639854
1.53420177836431
1.51210457491872
1.49004168625435
1.46795146388323
1.4458823437269
1.42379731384328
1.40172528285032
1.37964401166595
1.3575707383837
1.33549209229944
1.31341834674707
1.29134146116819
1.26926755758372
1.24719180206268
1.2251178443569
1.20304278068668
1.18096878892109
1.15889412715104
1.13682009660462
1.11474565446659
1.092671579176
1.07059724827054
1.04852312765786
1.02644884749056
1.00437468598349
0.982300425371654
0.960226230187711
0.938151974882706
0.916077753822481
0.894003498652606
0.871929258579247
0.849855002869924
0.827780748910563
0.805706494077293
0.783632229308558
0.761557977831015
0.739483703150777
0.717409458410319
0.695335172375523
0.673260939084608
0.651186637482627
0.629112422623715
0.60703809758875
0.584963911941215
0.56288955029685
0.540815410834245
0.518740991306704
0.496666924936052
0.474592413595223
0.452518463046711
0.430443805979047
0.408370039120417
0.386295150751767
0.364221675345292
0.342146419868392
0.320073406981076
0.297997568858184
0.275925290015153
0.253848527168711
0.231777413320346
0.209699182834184
0.187629917952658
0.165549358149419
0.143483027776618
0.121398771083345
0.09933709788277
0.0772469678413718
0.0551925446663387
0.0330887476199244
0.0109536826314496
2.25775122684822
2.16325057283838
2.18051381322661
2.11977836030591
2.12062508683336
2.07752866855383
2.06849779270841
2.03501647107001
2.02056666313104
1.99233168041188
1.97489670526396
1.94953184044061
1.93038025660896
1.90657430533992
1.8863754529218
1.86339892778331
1.84252750282286
1.81997990492926
1.79866532323337
1.77633397500555
1.75472759691786
1.73250427813463
1.71070932182272
1.68854125949006
1.6666278985325
1.64449015801623
1.62250498518191
1.60038580651284
1.57835874348279
1.55625224351279
1.53420178587597
1.51210458041649
1.49004169151546
1.46795146758897
1.44588234705194
1.42379731607433
1.40172528474592
1.37964401284398
1.35757073933104
1.33549209280985
1.31341834712691
1.29134146130292
1.26926755766141
1.24719180201642
1.2251178442989
1.20304278057523
1.18096878882101
1.15889412703472
1.1368200965082
1.11474565437105
1.09267157910068
1.0705972482021
1.04852312760623
1.02644884744654
1.00437468595194
0.982300425346252
0.960226230170659
0.938151974869861
0.916077753814735
0.89400349864741
0.871929258576825
0.8498550028689
0.82778074891075
0.805706494078221
0.783632229309685
0.761557977832644
0.739483703151908
0.717409458412058
0.695335172376189
0.673260939086302
0.651186637482591
0.62911242262548
0.607038097587857
0.584963911943353
0.562889550294882
0.540815410837227
0.518740991303263
0.496666924940569
0.47459241358961
0.45251846305379
0.430443805970089
0.408370039131637
0.386295150737553
0.364221675363122
0.342146419845861
0.320073407009406
0.297997568822455
0.275925290060142
0.253848527112022
0.231777413391758
0.209699182744219
0.187629918065997
0.16554935800663
0.143483027956511
0.121398770857152
0.0993370981833478
0.0772469677108704
0.0551925563076472
0.0330887349781999
0.0109617387626814
2.25777744629973
2.16323699858119
2.18051387424643
2.11977726916019
2.12062536839101
2.07752780549039
2.06849776399666
2.03501572211061
2.020566398175
1.99233103616653
1.97489635773915
1.94953132414859
1.93037993921563
1.90657393031941
1.88637521770948
1.86339868441137
1.84252735608676
1.81997976527017
1.79866524642699
1.77633390596686
1.75472756592898
1.73250425138525
1.71070931636018
1.68854125485527
1.66662790475632
1.64449016295598
1.62250499499683
1.60038581414789
1.57835875285159
1.55625225060554
1.53420179323657
1.51210458581451
1.49004169661985
1.46795147118672
1.44588235024834
1.42379731821633
1.40172528654857
1.37964401395919
1.35757074021789
1.33549209328107
1.31341834747113
1.29134146141613
1.26926755772046
1.24719180196025
1.22511784423271
1.20304278046063
1.18096878871852
1.15889412691869
1.13682009641215
1.11474565427714
1.09267157902675
1.07059724813553
1.04852312755609
1.02644884740414
1.00437468592164
0.982300425322042
0.960226230154492
0.938151974857803
0.916077753807553
0.894003498642682
0.871929258574724
0.849855002868118
0.827780748911098
0.805706494079247
0.78363222931088
0.761557977834285
0.739483703153064
0.71740945841376
0.695335172376874
0.673260939087924
0.651186637482592
0.629112422627143
0.607038097587042
0.584963911945346
0.562889550293058
0.540815410839996
0.518740991300065
0.496666924944761
0.474592413584392
0.45251846306036
0.430443805961765
0.408370039142053
0.386295150724351
0.36422167537968
0.342146419824937
0.320073407035718
0.297997568789274
0.275925290101926
0.253848527059377
0.231777413458081
0.20969918266067
0.187629918171259
0.165549357874023
0.143483028123583
0.121398770647093
0.0993370984627648
0.0772469675940986
0.0551925675162172
0.0330887226516459
0.0109698097244169
2.25780358285027
2.16322353370955
2.18051387139848
2.11977620616479
2.12062558717407
2.07752695392995
2.0684976904162
2.03501498173607
2.02056611268258
1.99233040479924
1.97489600780689
1.94953082364953
1.93037962818924
1.9065735703343
1.88637499094424
1.86339845300665
1.84252721648311
1.81997963391903
1.79866517454049
1.7763338421128
1.75472753787169
1.73250422755867
1.71070931239955
1.68854125167979
1.66662791158938
1.64449016849581
1.62250500493133
1.60038582192983
1.5783587621135
1.55625225764028
1.53420180041673
1.51210459108699
1.49004170154782
1.46795147466016
1.44588235330418
1.42379732025994
1.40172528825196
1.37964401500693
1.35757074104145
1.33549209371127
1.31341834777892
1.29134146150748
1.26926755776102
1.2471918018945
1.22511784415886
1.20304278034343
1.1809687886142
1.15889412680343
1.13682009631693
1.11474565418525
1.09267157895453
1.07059724807109
1.04852312750768
1.02644884736352
1.0043746858927
0.982300425299112
0.960226230139275
0.938151974846573
0.916077753800959
0.894003498638434
0.87192925857295
0.849855002867579
0.827780748911603
0.805706494080365
0.783632229312136
0.761557977835931
0.739483703154239
0.717409458415417
0.695335172377571
0.673260939089473
0.651186637482627
0.629112422628704
0.607038097586302
0.584963911947198
0.562889550291373
0.540815410842558