/*--------------------------------*- C++ -*----------------------------------*\
| =========                 |                                                 |
| \\      /  F ield         | OpenFOAM: The Open Source CFD Toolbox           |
|  \\    /   O peration     | Version:  2.3.0                                 |
|   \\  /    A nd           | Web:      www.OpenFOAM.org                      |
|    \\/     M anipulation  |                                                 |
\*---------------------------------------------------------------------------*/
FoamFile
{
    version     2.0;
    format      ascii;
    class       surfaceScalarField;
    location    "25000";
    object      phi;
}
// * * * * * * * * * * * * * * * * * * * * * * * * * * * * * * * * * * * * * //

dimensions      [0 3 -1 0 0 0 0];

internalField   nonuniform List<scalar> 
19800
(
4.7257726529483e-08
-2.84171355614559e-09
4.83350739124917e-08
-1.07734738300378e-09
4.93382862532823e-08
-1.003212340795e-09
5.01183822837795e-08
-7.80096030496276e-10
5.08832833443797e-08
-7.649010605986e-10
5.14690688627443e-08
-5.85785518371166e-10
5.20144668179694e-08
-5.45397955224721e-10
5.24148657576971e-08
-4.00398939730805e-10
5.27553901458462e-08
-3.40524388159977e-10
5.29837877635338e-08
-2.28397617687074e-10
5.31550806767465e-08
-1.71292913213192e-10
5.3249582577152e-08
-9.45019004124224e-11
5.33047383276154e-08
-5.51557504675162e-11
5.3315763800864e-08
-1.10254732565919e-11
5.33070886933309e-08
8.67510753869737e-12
5.32783347819642e-08
2.87539113711296e-11
5.32441191632968e-08
3.42156186682399e-11
5.32042411146218e-08
3.98780486782381e-11
5.31665443206696e-08
3.76967939556342e-11
5.31301441741742e-08
3.64001464883321e-11
5.30987790032813e-08
3.13651708932064e-11
5.30711354632846e-08
2.76435399943556e-11
5.30487197431603e-08
2.24157201262833e-11
5.30301643647651e-08
1.8555378398427e-11
5.30158900692029e-08
1.42742955622367e-11
5.30047083809017e-08
1.11816883031396e-11
5.29965872488853e-08
8.12113201710233e-12
5.29906057547477e-08
5.98149413856011e-12
5.29865946448423e-08
4.01110990979993e-12
5.29838988018956e-08
2.69584295017711e-12
5.29823493914407e-08
1.54941045799643e-12
5.29815130957519e-08
8.36295684674108e-13
5.29812673811733e-08
2.45714578409304e-13
5.29813447976816e-08
-7.74165124761318e-14
5.29816739929473e-08
-3.29195266725874e-13
5.29821027640323e-08
-4.28771083110643e-13
5.29825990280114e-08
-4.96263975872932e-13
5.2983083377641e-08
-4.84349630017007e-13
5.29835484928198e-08
-4.65115175433289e-13
5.29839580882277e-08
-4.09595408453194e-13
5.29843179563296e-08
-3.59868100524397e-13
5.29846152220607e-08
-2.9726572985759e-13
5.29848608107059e-08
-2.45588645725775e-13
5.29850531212121e-08
-1.92310506385426e-13
5.29852035609292e-08
-1.50439714413068e-13
5.29853149467673e-08
-1.11385839108696e-13
5.29853969520746e-08
-8.2005305860393e-14
5.29854533399521e-08
-5.63878775996974e-14
5.29854913582887e-08
-3.80183334936356e-14
5.29855142349672e-08
-2.28766770843826e-14
5.2985526913238e-08
-1.26782718939632e-14
5.29855316598178e-08
-4.74658026477155e-15
5.29855315689569e-08
9.08543292436985e-17
5.29855280134025e-08
3.55555402855928e-15
5.2985522778438e-08
5.23496273265754e-15
5.29855165719495e-08
6.2064875670822e-15
5.29855103108968e-08
6.26105484399862e-15
5.29855042732822e-08
6.03761616200759e-15
5.29854988529947e-08
5.4202860183855e-15
5.29854940934171e-08
4.75957560011816e-15
5.29854900995346e-08
3.99388430911893e-15
5.29854868144795e-08
3.28505851329905e-15
5.29854841971753e-08
2.61730369771715e-15
5.29854821739822e-08
2.02319234782933e-15
5.29854806341622e-08
1.53981890821127e-15
5.29854795364627e-08
1.0976990049673e-15
5.29854787312292e-08
8.05229805577861e-16
5.29854782404877e-08
4.90741434256449e-16
5.29854778749348e-08
3.65553500381638e-16
5.29854777463311e-08
1.28603205854957e-16
5.29854776005881e-08
1.45743003033055e-16
5.29854776734746e-08
-7.28859832327463e-17
5.2985477597568e-08
7.59053571974125e-17
5.29854777864268e-08
-1.88857726614524e-16
5.29854776805315e-08
1.05894990706849e-16
5.29854779600574e-08
-2.79526401221879e-16
5.29854777502867e-08
2.09771605383855e-16
5.29854781435709e-08
-3.93286167216602e-16
5.29854777578218e-08
3.85748275696e-16
5.2985478332647e-08
-5.74825062653624e-16
5.29854776764987e-08
6.56148800561078e-16
5.29854785523632e-08
-8.75864534941649e-16
5.29854774818533e-08
1.07051065948819e-15
5.29854788502217e-08
-1.36836760864704e-15
5.29854771357991e-08
1.71442211991527e-15
5.2985479297713e-08
-2.16191431613021e-15
5.29854765711271e-08
2.72658659968208e-15
5.29854799999583e-08
-3.42883079503191e-15
5.29854756722328e-08
4.32772495180905e-15
5.29854811150263e-08
-5.44279285538801e-15
5.29854742476566e-08
6.86736963505844e-15
5.29854828870723e-08
-8.63941394340424e-15
5.29854719884619e-08
1.08986102398388e-14
5.29854857031044e-08
-1.37147097542965e-14
5.29854684703428e-08
1.7232829837004e-14
5.29854922741467e-08
-2.38038022482128e-14
5.29854982775276e-08
-6.00338267569868e-15
5.29869004132417e-08
-1.40213578212436e-12
5.29866824255574e-08
2.17987752614228e-13
2.06917208124428e-12
1.33280779301806e-07
-1.08578027919781e-08
1.36296959705968e-07
-4.09352778718368e-09
1.39135899883132e-07
-3.84215251795293e-09
1.41310629218984e-07
-2.95482536633731e-09
1.434666304792e-07
-2.9209023208056e-09
1.45094955979096e-07
-2.21411101827154e-09
1.46624300902015e-07
-2.07474287812732e-09
1.4773347988504e-07
-1.50957792273267e-09
1.48683507262706e-07
-1.29055176582571e-09
1.49313215079259e-07
-8.58105434241453e-10
1.49788989331006e-07
-6.47067164973565e-10
1.50047488507353e-07
-3.53001076744763e-10
1.50199850632473e-07
-2.07517875605702e-10
1.50227839499744e-07
-3.90143405302429e-11
1.50203070801713e-07
3.34438055912675e-11
1.501216332903e-07
1.10191422777736e-10
1.50026197702032e-07
1.29651206950416e-10
1.49914539722076e-07
1.51536028619773e-10
1.49809629558193e-07
1.4260695783595e-10
1.49708035814107e-07
1.37993890574005e-10
1.49620835292633e-07
1.18565692360372e-10
1.49543803840962e-07
1.0467499166472e-10
1.49481534859624e-07
8.46847014695296e-11
1.4942988582575e-07
7.0204412274401e-11
1.49390268830694e-07
5.38912906270704e-11
1.49359176253238e-07
4.2274265769316e-11
1.49336664434307e-07
3.0632950953283e-11
1.49320051713131e-07
2.2594215315391e-11
1.49308955357006e-07
1.51074660209927e-11
1.49301481985198e-07
1.01692147572142e-11
1.49297215567986e-07
5.81582766113707e-12
1.49294908882454e-07
3.14298122371857e-12
1.49294253810611e-07
9.0078641306882e-13
1.49294481814592e-07
-3.05420494909741e-13
1.49295414562293e-07
-1.26194296636168e-12
1.49296614337362e-07
-1.62854614102584e-12
1.49298004155331e-07
-1.88608195531358e-12
1.49299354692521e-07
-1.83488682261598e-12
1.49300653051255e-07
-1.76347391316551e-12
1.49301793328838e-07
-1.549873000073e-12
1.49302796159528e-07
-1.36269878514522e-12
1.49303622782155e-07
-1.12388836241095e-12
1.49304306304834e-07
-9.29111330458264e-13
1.49304840508741e-07
-7.2651441257011e-13
1.49305258743773e-07
-5.68674745280624e-13
1.49305567776535e-07
-4.20418601136145e-13
1.49305795469465e-07
-3.09698236648938e-13
1.49305951635924e-07
-2.12554331964638e-13
1.49306056994456e-07
-1.43376865704561e-13
1.49306120120182e-07
-8.60023977747399e-14
1.49306155086048e-07
-4.76441371465239e-14
1.4930616794672e-07
-1.7607250860926e-14
1.49306167494015e-07
5.43563332283113e-16
1.49306157392468e-07
1.36570904131239e-14
1.49306142714278e-07
1.99131612846899e-14
1.49306125333656e-07
2.3587110657758e-14
1.49306107860117e-07
2.37345981600149e-14
1.49306091010289e-07
2.28874414279513e-14
1.49306075911332e-07
2.05192492590531e-14
1.49306062652401e-07
1.80185099804149e-14
1.49306051539945e-07
1.51063382926881e-14
1.49306042401736e-07
1.24232727289405e-14
1.49306035125746e-07
9.89328907759358e-15
1.49306029506783e-07
7.64215754963629e-15
1.49306025228206e-07
5.81839385290887e-15
1.49306022187909e-07
4.1379944301963e-15
1.49306019948654e-07
3.04448276579971e-15
1.493060185996e-07
1.83979287693224e-15
1.49306017576442e-07
1.3887097260347e-15
1.4930601723888e-07
4.66166406954955e-16
1.493060168174e-07
5.67221022940217e-16
1.49306017047946e-07
-3.03434826716248e-16
1.493060168071e-07
3.1675509534873e-16
1.493060173738e-07
-7.55559483388292e-16
1.49306017029586e-07
4.5010717048852e-16
1.49306017871251e-07
-1.12119135722949e-15
1.49306017207646e-07
8.73371203470865e-16
1.49306018402734e-07
-1.5883720631184e-15
1.49306017202078e-07
1.58640201923639e-15
1.49306018961375e-07
-2.33412460213374e-15
1.4930601693356e-07
2.68396373421963e-15
1.49306019624516e-07
-3.56682068648186e-15
1.49306016325272e-07
4.36975857196469e-15
1.49306020535934e-07
-5.57903250484132e-15
1.49306015257036e-07
6.99331592689308e-15
1.49306021912695e-07
-8.81757117434238e-15
1.49306013519082e-07
1.11201984967362e-14
1.49306024075923e-07
-1.39856734292206e-14
1.49306010753491e-07
1.76501583306444e-14
1.493060275108e-07
-2.22001013996734e-14
1.49306006369977e-07
2.8008192073435e-14
1.49306032968703e-07
-3.52381384257219e-14
1.49305999417653e-07
4.44496592917512e-14
1.49306041640863e-07
-5.59380386649439e-14
1.49305988570793e-07
7.03030177133837e-14
1.49306061266201e-07
-9.64992068213709e-14
1.49306069630179e-07
-1.43673635263438e-14
1.49309995002698e-07
-5.32750842012046e-12
1.49309408148166e-07
8.04842405024964e-13
7.93405449728792e-12
2.07552719810006e-07
-2.33335687646487e-08
2.12206360545766e-07
-8.74716852294838e-09
2.1662887160517e-07
-8.26466357737088e-09
2.19959225328889e-07
-6.28517909002932e-09
2.23291557944183e-07
-6.25323493610748e-09
2.25767797229534e-07
-4.69035030356104e-09
2.28109035451297e-07
-4.4159810998511e-09
2.29781505013472e-07
-3.18204748493684e-09
2.31221678590874e-07
-2.73072534322507e-09
2.32161526450977e-07
-1.79795329431081e-09
2.32875972469527e-07
-1.36151318349721e-09
2.3325591291235e-07
-7.32941519552709e-10
2.33481325648107e-07
-4.32930611363245e-10
2.33516607620498e-07
-7.42963129152633e-11
2.33476081574017e-07
7.39698520647971e-11
2.33349008777677e-07
2.3726421913089e-10
2.33203152865425e-07
2.75507119202418e-10
2.3303228952898e-07
3.22399365042166e-10
2.32872998010907e-07
3.01898475861468e-10
2.32718415014279e-07
2.92576887209761e-10
2.32586377539883e-07
2.50603166746748e-10
2.32469511379406e-07
2.21541152164752e-10
2.32375409797745e-07
1.78786283138151e-10
2.32297222090082e-07
1.48392119926442e-10
2.32237470839757e-07
1.13642540948448e-10
2.32190502243486e-07
8.92428620289928e-11
2.3215663486412e-07
6.45003303024111e-11
2.3213160598863e-07
4.7623090829744e-11
2.32114978966717e-07
3.17344879418025e-11
2.32103768589469e-07
2.13795920066355e-11
2.32097433268111e-07
1.21511490387195e-11
2.32094015941533e-07
6.56030781785677e-12
2.32093104956969e-07
1.81177099143774e-12
2.32093497221613e-07
-6.97685152215347e-13
2.32094957242034e-07
-2.72196337202737e-12
2.32096799783123e-07
-3.47108724497567e-12
2.32098929577036e-07
-4.01587584273015e-12
2.32100986416849e-07
-3.8917266504841e-12
2.32102963897015e-07
-3.74095409482224e-12
2.32104694141094e-07
-3.28011708119766e-12
2.32106216396328e-07
-2.88495403267513e-12
2.32107467539909e-07
-2.37503192804495e-12
2.32108502514023e-07
-1.96408545333097e-12
2.32109309234341e-07
-1.53323470979429e-12
2.3210994104236e-07
-1.20048276136364e-12
2.32110406540192e-07
-8.85916418344473e-13
2.32110749567933e-07
-6.52725990276146e-13
2.32110983951093e-07
-4.46937482392832e-13
2.32111142003063e-07
-3.01428838583724e-13
2.32111236048774e-07
-1.8004812497588e-13
2.32111287925086e-07
-9.9520440601218e-14
2.32111306375651e-07
-3.60578166093688e-14
2.3211130500366e-07
1.91554981946811e-15
2.321112890899e-07
2.95708440070125e-14
2.32111266475179e-07
4.25278718783349e-14
2.32111239826943e-07
5.02353552195569e-14
2.32111213180976e-07
5.03805722826119e-14
2.32111187518066e-07
4.85503455153381e-14
2.32111164587832e-07
4.34494810430057e-14
2.32111144465893e-07
3.81404443074591e-14
2.32111127634188e-07
3.19380331635573e-14
2.32111113804219e-07
2.62532452346977e-14
2.32111102806612e-07
2.08908914689818e-14
2.32111094327586e-07
1.61211857389778e-14
2.32111087871737e-07
1.22742529950302e-14
2.32111083304136e-07
8.7055976402596e-15
2.32111079927453e-07
6.42116326023045e-15
2.32111077922314e-07
3.84493263514003e-15
2.32111076371905e-07
2.93911721158319e-15
2.3211107590143e-07
9.36627401732584e-16
2.32111075242388e-07
1.22627230867179e-15
2.32111075641514e-07
-7.02561274114594e-16
2.32111075230771e-07
7.2749794812321e-16
2.32111076159003e-07
-1.6838008247076e-15
2.3211107555706e-07
1.0520477858505e-15
2.32111076937813e-07
-2.50195094472839e-15
2.32111075801031e-07
2.01015188895488e-15
2.32111077777224e-07
-3.56456858385586e-15
2.32111075748366e-07
3.61525518164374e-15
2.32111078676273e-07
-5.2620334946539e-15
2.32111075271098e-07
6.08913235087689e-15
2.32111079765171e-07
-8.06089056536718e-15
2.32111074238906e-07
9.89602355083116e-15
2.32111081281163e-07
-1.26212823722042e-14
2.32111072446565e-07
1.58279157453212e-14
2.32111083583081e-07
-1.99540833550346e-14
2.32111069538845e-07
2.51644361372467e-14
2.32111087204472e-07
-3.16513036667899e-14
2.32111064913717e-07
3.9940909464994e-14
2.3211109295483e-07
-5.02412123538909e-14
2.3211105758197e-07
6.3381050843707e-14
2.32111102090763e-07
-7.97469266776648e-14
2.32111045952575e-07
1.00587842619127e-13
2.32111116604933e-07
-1.26590599300986e-13
2.32111027777115e-07
1.59131040664077e-13
2.32111148538014e-07
-2.17260098983175e-13
2.32111147358277e-07
-1.31876331369388e-14
2.32117166063511e-07
-1.13462138580905e-11
2.32116285602514e-07
1.68530360787279e-12
1.70289367468116e-11
2.7127287018921e-07
-3.95980180731629e-08
2.77335109687032e-07
-1.48094080207628e-08
2.83055374764477e-07
-1.39849286547412e-08
2.87356978968477e-07
-1.05867832940679e-08
2.91621358554782e-07
-1.05176145224011e-08
2.94782008344905e-07
-7.85100009367747e-09
2.97742282305792e-07
-7.37625506077055e-09
2.99846541043632e-07
-5.28630622276727e-09
3.0164370919692e-07
-4.52789349655795e-09
3.02808614563264e-07
-2.96285866072043e-09
3.03687572445695e-07
-2.240471065893e-09
3.04149227131467e-07
-1.19459620532103e-09
3.04418784492456e-07
-7.02487972379186e-10
3.04453219594713e-07
-1.08731415176449e-10
3.04394684711909e-07
1.32504734901798e-10
3.04229992514367e-07
4.01956416694549e-10
3.0404314885018e-07
4.62350783368183e-10
3.03826317420309e-07
5.39230794892452e-10
3.03624774324946e-07
5.03441571237965e-10
3.03429875285388e-07
4.87475926781728e-10
3.03263651891776e-07
4.16826560353795e-10
3.03116836590683e-07
3.68356453245169e-10
3.02998759753345e-07
2.96863120479864e-10
3.02900820323627e-07
2.46331549631528e-10
3.02826071238679e-07
1.88391625914157e-10
3.02767419186867e-07
1.47894913856069e-10
3.02725201669445e-07
1.06717847766273e-10
3.0269407535835e-07
7.87494019286064e-11
3.02673460279407e-07
5.23495668877109e-11
3.02659618910269e-07
3.52209611242983e-11
3.0265185717046e-07
1.99128888340908e-11
3.02647728513604e-07
1.0688964647989e-11
3.026467111673e-07
2.82911726765426e-12
3.02647304091714e-07
-1.29060956719769e-12
3.02649211585237e-07
-4.62945689232269e-12
3.02651580967727e-07
-5.84046972667844e-12
3.02654293750611e-07
-6.72865874572162e-12
3.02656903175578e-07
-6.50115160341911e-12
3.02659402544366e-07
-6.24032287432248e-12
3.02661584817012e-07
-5.46238970586771e-12
3.02663500336719e-07
-4.80047374750883e-12
3.02665072214987e-07
-3.94691016326995e-12
3.02666370106306e-07
-3.26197678519424e-12
3.02667380225996e-07
-2.54335440283353e-12
3.02668169883339e-07
-1.99014009372982e-12
3.02668750624146e-07
-1.46665722142106e-12
3.02669177600888e-07
-1.07970275800039e-12
3.02669468527525e-07
-7.37864138284565e-13
3.02669663956346e-07
-4.96857629949246e-13
3.02669779500045e-07
-2.95591827610111e-13
3.02669842500837e-07
-1.62521254815572e-13
3.02669863964362e-07
-5.75213604448608e-14
3.02669860882461e-07
4.99744303633012e-15
3.02669839873793e-07
5.05795209682092e-14
3.02669810707591e-07
7.16941010525329e-14
3.02669776703947e-07
8.42389945024871e-14
3.02669742869715e-07
8.42147895646518e-14
3.02669710408529e-07
8.10115460067835e-14
3.02669681475235e-07
7.23827939712595e-14
3.02669656143507e-07
6.34721817979003e-14
3.0266963499218e-07
5.30893643963237e-14
3.02669617644272e-07
4.3601160039188e-14
3.02669603872882e-07
3.46623011512802e-14
3.02669593273923e-07
2.67201576401563e-14
3.02669585220114e-07
2.03280696056345e-14
3.0266957953414e-07
1.43915590380285e-14
3.02669575342173e-07
1.06131318440808e-14
3.02669572862742e-07
6.32436985101113e-15
3.02669570952724e-07
4.84914493156919e-15
3.02669570385718e-07
1.50363199595598e-15
3.02669569583951e-07
2.02803175851171e-15
3.02669570095037e-07
-1.21365313501605e-15
3.02669569597827e-07
1.22469742546227e-15
3.02669570761484e-07
-2.84745378356934e-15
3.02669570021962e-07
1.79156174903721e-15
3.02669571743179e-07
-4.22317150905285e-15
3.02669570335214e-07
3.41811414766911e-15
3.02669572792621e-07
-6.02196692442058e-15
3.02669570273682e-07
6.13419834881383e-15
3.02669573911105e-07
-8.89945601638435e-15
3.02669569680869e-07
1.03193672713678e-14
3.02669575262704e-07
-1.36427220507483e-14
3.02669568396995e-07
1.67617327895026e-14
3.02669577143942e-07
-2.13682289352567e-14
3.02669566168611e-07
2.68032420988038e-14
3.0266958000167e-07
-3.37871481676831e-14
3.02669562555146e-07
4.26109595042471e-14
3.02669584498941e-07
-5.35950988096295e-14
3.02669556808628e-07
6.76312257903316e-14
3.02669591640832e-07
-8.50734145608586e-14
3.02669547699492e-07
1.07322389022303e-13
3.02669602987356e-07
-1.35034787819212e-13
3.02669533250262e-07
1.70324932272108e-13
3.02669621012801e-07
-2.14353356340597e-13
3.02669510668962e-07
2.694751002001e-13
3.02669660844063e-07
-3.67435195667071e-13
3.02669661226619e-07
-1.35701978087101e-14
3.02677349125953e-07
-1.90341134117906e-11
3.0267614792274e-07
2.88650704329758e-12
2.85769749208538e-11
3.25552833184627e-07
-5.90467671018035e-08
3.32807573148381e-07
-2.20641479844911e-08
3.39566972407848e-07
-2.07443279141974e-08
3.44660377233121e-07
-1.56801881193408e-08
3.49632105224214e-07
-1.54893425135968e-08
3.5331642486826e-07
-1.15353197377721e-08
3.5671570234197e-07
-1.07755325345468e-08
3.59123159919787e-07
-7.69376380055689e-09
3.61152720220521e-07
-6.55745379727193e-09
3.62460377278299e-07
-4.2705157185416e-09
3.63434878501728e-07
-3.21497228938151e-09
3.63939973283403e-07
-1.69969098696552e-09
3.64227098344252e-07
-9.89613033257068e-10
3.64252612634275e-07
-1.34245705159201e-10
3.64174325477939e-07
2.10791891238792e-10
3.63979334467578e-07
5.96947427028235e-10
3.63760595588827e-07
6.81089662110321e-10
3.63510129526935e-07
7.89696856802544e-10
3.63277883448128e-07
7.35687650009167e-10
3.63054532843779e-07
7.10826531147526e-10
3.62864236041205e-07
6.07123362923425e-10
3.62696747004859e-07
5.35845489585918e-10
3.62562149185758e-07
4.31460939613555e-10
3.62450833445423e-07
3.5764728996531e-10
3.62365959089228e-07
2.73265982124927e-10
3.62299563687041e-07
2.14290316070076e-10
3.62251848072371e-07
1.54433462492907e-10
3.62216802936014e-07
1.13794538282609e-10
3.62193665065065e-07
7.5487437861922e-11
3.62178230590654e-07
5.06554355143502e-11
3.62169654249568e-07
2.84892299415599e-11
3.62165187359616e-07
1.5155854628577e-11
3.62164207875507e-07
3.80860135975938e-12
3.62165033451739e-07
-2.1161857617562e-12
3.62167314894794e-07
-6.91089995052654e-12
3.62170100207387e-07
-8.62578228767764e-12
3.62173248784567e-07
-9.87723594100211e-12
3.62176264729404e-07
-9.51709641083632e-12
3.62179138103559e-07
-9.11369703388244e-12
3.62181641578334e-07
-7.96586446926983e-12
3.62183831564524e-07
-6.99045992835767e-12
3.6218562581655e-07
-5.74116217091703e-12
3.62187103213965e-07
-4.73937418531512e-12
3.62188251247582e-07
-3.69138802963264e-12
3.62189146246229e-07
-2.88513876972206e-12
3.62189803172104e-07
-2.12358308908667e-12
3.62190284527021e-07
-1.56105763516257e-12
3.62190611452763e-07
-1.0647899003255e-12
3.62190829835893e-07
-7.15240762190029e-13
3.62190957934695e-07
-4.23690599820267e-13
3.62191026621882e-07
-2.31208418506761e-13
3.62191048638732e-07
-7.95382067909462e-14
3.62191043117199e-07
1.05189575341347e-14
3.62191017677541e-07
7.60191568202051e-14
3.62190983279047e-07
1.06092576397335e-13
3.6219094371839e-07
1.23799673040419e-13
3.6219090457637e-07
1.23356826175133e-13
3.62190867215652e-07
1.18372243133959e-13
3.62190834009556e-07
1.05588895249799e-13
3.62190805027488e-07
9.24542218299888e-14
3.62190780879994e-07
7.72368665702438e-14
3.62190761122395e-07
6.33587788726664e-14
3.6219074547236e-07
5.03123286448213e-14
3.62190733453465e-07
3.87390703551906e-14
3.62190724347206e-07
2.94342952865968e-14
3.62190717931556e-07
2.0807206574543e-14
3.62190713225061e-07
1.53196371193947e-14
3.6219071044755e-07
9.10187787319232e-15
3.62190708330196e-07
6.96649322646859e-15
3.62190707708591e-07
2.12524713465161e-15
3.62190706843813e-07
2.89281430617492e-15
3.62190707425699e-07
-1.79554587213927e-15
3.62190706905071e-07
1.74531609548974e-15
3.62190708204803e-07
-4.14718525940938e-15
3.62190707416138e-07
2.58023453667872e-15
3.6219070932172e-07
-6.1287522351119e-15
3.62190707793586e-07
4.94623885854869e-15
3.62190710499047e-07
-8.72744210485475e-15
3.62190707746256e-07
8.88698918594894e-15
3.62190711739139e-07
-1.28923442273919e-14
3.6219070710531e-07
1.49532011641097e-14
3.62190713225558e-07
-1.97629806992983e-14
3.62190705699741e-07
2.42875522576798e-14
3.621907152875e-07
-3.09559887002316e-14
3.62190703255558e-07
3.88351848415458e-14
3.62190718418073e-07
-4.89496599333317e-14
3.62190699292349e-07
6.1736685728924e-14
3.62190723345798e-07
-7.76485473879256e-14
3.62190692991023e-07
9.79859949129848e-14
3.62190731172429e-07
-1.23254818930933e-13
3.62190683003042e-07
1.55491778042142e-13
3.62190743606774e-07
-1.95638510745631e-13
3.6219066715907e-07
2.46772635961351e-13
3.62190763359827e-07
-3.10554403550661e-13
3.62190642409999e-07
3.9042521840023e-13
3.62190807569848e-07
-5.32595038621387e-13
3.62190815986378e-07
-2.19867374151207e-14
3.6219977338438e-07
-2.7991511706359e-11
3.62198244023352e-07
4.41586836735927e-12
4.18922881502085e-11
3.71398896502529e-07
-8.11371612377164e-08
3.79641718977563e-07
-3.0306970459524e-08
3.87208878409117e-07
-2.83114873456757e-08
3.92921138930027e-07
-2.1392448640217e-08
3.98397959815669e-07
-2.09661633992568e-08
4.02451907390616e-07
-1.55892673127169e-08
4.0612778676037e-07
-1.44514119042207e-08
4.08718206132918e-07
-1.02841831730385e-08
4.10869255970707e-07
-8.70850363508018e-09
4.12244670327324e-07
-5.64593007513151e-09
4.13254552240323e-07
-4.22485420236309e-09
4.13768916917572e-07
-2.21405566425224e-09
4.14051114530384e-07
-1.27181064604549e-09
4.14060721700712e-07
-1.4385287548342e-10
4.13961904817895e-07
3.09608774111803e-10
4.13743308471046e-07
8.15543773893116e-10
4.13501239694453e-07
9.23158438680568e-10
4.1322823922441e-07
1.06269732683865e-09
4.12975857997181e-07
9.88068877315069e-10
4.12734698269007e-07
9.51986259256762e-10
4.12529504595949e-07
8.12317035958572e-10
4.12349647484548e-07
7.15702600992683e-10
4.12205265188124e-07
5.75843236051771e-10
4.12086271880002e-07
4.76640598138701e-10
4.11995662521511e-07
3.63875340620313e-10
4.11925037008769e-07
2.84915828816946e-10
4.1187438550164e-07
2.05084969578741e-10
4.11837356655312e-07
1.50823384605371e-10
4.11813007446487e-07
9.9836646754129e-11
4.11796895320713e-07
6.67675613535175e-11
4.11788048382649e-07
3.73361680166896e-11
4.11783566408687e-07
1.96378285791302e-11
4.11782749791729e-07
4.62521833111993e-12
4.11783828935348e-07
-3.19532942932134e-12
4.11786415297321e-07
-9.49726193674409e-12
4.11789512157963e-07
-1.17226429934688e-11
4.11792962587666e-07
-1.33276656726438e-11
4.11796251166824e-07
-1.28056755618046e-11
4.11799364901475e-07
-1.22274316846715e-11
4.11802070704768e-07
-1.06716677809239e-11
4.11804428209945e-07
-9.34796506582594e-12
4.11806355900736e-07
-7.66885297560469e-12
4.11807937944759e-07
-6.32141822617739e-12
4.11809164899304e-07
-4.91834259150344e-12
4.11810118261051e-07
-3.8385004822701e-12
4.11810816306578e-07
-2.82162861124775e-12
4.1181132568488e-07
-2.07043596790838e-12
4.11811670239959e-07
-1.40934496793644e-12
4.11811898801034e-07
-9.43801845741975e-13
4.11812031511977e-07
-5.56401578244033e-13
4.11812101135148e-07
-3.0083159257404e-13
4.11812121568087e-07
-9.99711575145856e-14
4.11812113043665e-07
1.90433892324485e-14
4.11812083819725e-07
1.05243088406262e-13
4.11812045431641e-07
1.44480698277805e-13
4.11812001959273e-07
1.67272063408253e-13
4.11811959230873e-07
1.66085222663135e-13
4.11811918691372e-07
1.5891174184211e-13
4.11811882782342e-07
1.41497924651631e-13
4.11811851556868e-07
1.23679721936343e-13
4.11811825607655e-07
1.0318606827771e-13
4.11811804437315e-07
8.45291057654401e-14
4.11811787712714e-07
6.703694396979e-14
4.11811774902456e-07
5.15493021914989e-14
4.11811765230681e-07
3.9106086385297e-14
4.11811758434671e-07
2.76032090822574e-14
4.11811753478776e-07
2.02755044682852e-14
4.11811750563449e-07
1.20171885516053e-14
4.11811748368622e-07
9.16132744621943e-15
4.11811747735143e-07
2.75873864526391e-15
4.11811746869294e-07
3.75863884369623e-15
4.11811747494669e-07
-2.42092295853147e-15
4.11811746993015e-07
2.24695845325348e-15
4.11811748356069e-07
-5.51022285280137e-15
4.11811747575825e-07
3.36047112745645e-15
4.1181174955243e-07
-8.10535643065518e-15
4.11811748005469e-07
6.49318445139696e-15
4.11811750792575e-07
-1.15145566014265e-14
4.11811747981831e-07
1.16977304185087e-14
4.11811752080587e-07
-1.69910981790214e-14
4.11811747335682e-07
1.96981152929597e-14
4.11811753609556e-07
-2.60368527073348e-14
4.11811745897217e-07
3.19998912594969e-14
4.11811755722245e-07
-4.07810235622807e-14
4.11811743390596e-07
5.11668291216116e-14
4.11811758928194e-07
-6.44872573469224e-14
4.11811739326711e-07
8.13381637102908e-14
4.11811763976137e-07
-1.02297974172974e-13
4.11811732867163e-07
1.29094965571367e-13
4.1181177199517e-07
-1.62382826363306e-13
4.11811722629091e-07
2.04857860616664e-13
4.11811784735004e-07
-2.57744423606114e-13
4.11811706387379e-07
3.25120252144525e-13
4.1181180497248e-07
-4.09139766817095e-13
4.11811681031596e-07
5.14366366471114e-13
4.11811850956199e-07
-7.02519631423847e-13
4.11811869707089e-07
-4.07376378787471e-14
4.11821729970704e-07
-3.78517755804002e-11
4.11819885814524e-07
6.26002481025813e-12
5.63902511829013e-11
4.09719982065917e-07
-1.05382075611637e-07
4.18759846090409e-07
-3.93468344840485e-08
4.26927405624162e-07
-3.64790468794224e-08
4.33095381756309e-07
-2.75604247723457e-08
4.3889652959078e-07
-2.67673112338011e-08
4.43177169187982e-07
-1.98699069098744e-08
4.46986472149247e-07
-1.82607148654645e-08
4.49652203676852e-07
-1.29499147007031e-08
4.51829719000241e-07
-1.08860189585571e-08
4.53208231170515e-07
-7.02444224536882e-09
4.54203609569939e-07
-5.22023260172157e-09
4.54698822427244e-07
-2.70926852156071e-09
4.54958319041085e-07
-1.53130725981518e-09
4.54946785144353e-07
-1.3231897875264e-10
4.54827717543672e-07
4.28676374744667e-10
4.54591701304695e-07
1.05156001296829e-09
4.54334168225646e-07
1.18069151774391e-09
4.54048384053901e-07
1.34848149857491e-09
4.53785207527432e-07
1.25124540378842e-09
4.53535478411369e-07
1.20171537529209e-09
4.5332339931852e-07
1.02439612881177e-09
4.53138343456118e-07
9.00758463483739e-10
4.5299001832129e-07
7.24168370817464e-10
4.52868243642093e-07
5.98415277299777e-10
4.52775685527739e-07
4.5643345495635e-10
4.52703832720539e-07
3.56768635993505e-10
4.52652441884272e-07
2.56475805853295e-10
4.52615071523709e-07
1.88193745183449e-10
4.52590626032627e-07
1.24282137795058e-10
4.52574603720091e-07
8.27898738743414e-11
4.52565941443052e-07
4.59984450769864e-11
4.52561706913178e-07
2.38723584507582e-11
4.52561150802614e-07
5.1813289123947e-12
4.52562490906443e-07
-4.53543326601018e-12
4.52565316170217e-07
-1.23225256856052e-11
4.52568628130228e-07
-1.50346029615667e-11
4.52572261201071e-07
-1.69607365307053e-11
4.52575703438196e-07
-1.62479127738327e-11
4.52578940479089e-07
-1.54644726257927e-11
4.5258174443241e-07
-1.34756211322974e-11
4.52584176578187e-07
-1.17801108761353e-11
4.52586160410927e-07
-9.65268575991553e-12
4.52587782504341e-07
-7.94351162837544e-12
4.52589037442691e-07
-6.17328095399992e-12
4.52590008876263e-07
-4.80993407158821e-12
4.52590717961839e-07
-3.53071419407652e-12
4.5259123292326e-07
-2.58539737716559e-12
4.52591579479783e-07
-1.75590149640535e-12
4.52591807460105e-07
-1.17178220416597e-12
4.52591938123713e-07
-6.87065173566714e-13
4.52592004784105e-07
-3.67491994197951e-13
4.52592021931826e-07
-1.17118847810167e-13
4.52592010054368e-07
3.09208076988006e-14
4.52591977697847e-07
1.37599614154807e-13
4.52591936475567e-07
1.85702972502658e-13
4.52591890565092e-07
2.13182551564696e-13
4.52591845780752e-07
2.10869570614271e-13
4.52591803574021e-07
2.01118447691939e-13
4.52591766337395e-07
1.7873453509456e-13
4.52591734092868e-07
1.55924207330403e-13
4.52591707379203e-07
1.29899716850261e-13
4.52591685658063e-07
1.06250247846843e-13
4.52591668551965e-07
8.4143020459617e-14
4.52591655490872e-07
6.46103893756591e-14
4.52591645669675e-07
4.89272744376078e-14
4.52591638792404e-07
3.44804778800623e-14
4.52591633810521e-07
2.52573976013471e-14
4.52591630894666e-07
1.49330473387458e-14
4.52591628728395e-07
1.13275949376494e-14
4.5259162812133e-07
3.36579493236402e-15
4.5259162730082e-07
4.57918363522688e-15
4.52591627950882e-07
-3.07097763853755e-15
4.52591627495565e-07
2.70227321029232e-15
4.52591628868474e-07
-6.88313713784663e-15
4.52591628132943e-07
4.09599615235022e-15
4.52591630098583e-07
-1.0070991423247e-14
4.52591628599696e-07
7.99207139731997e-15
4.52591631350467e-07
-1.426533261451e-14
4.52591628601244e-07
1.44469357914654e-14
4.52591632631353e-07
-2.10212130580761e-14
4.52591627976572e-07
2.43528930495738e-14
4.52591634136881e-07
-3.21971575394341e-14
4.52591626565343e-07
3.95714292511178e-14
4.52591636209674e-07
-5.04253430315551e-14
4.52591624102253e-07
6.32742556692476e-14
4.52591639354505e-07
-7.973950641312e-14
4.52591620110546e-07
1.00582120047156e-13
4.52591644308565e-07
-1.2649599431721e-13
4.52591613768063e-07
1.59635470161408e-13
4.52591652180108e-07
-2.00794873358619e-13
4.52591603716148e-07
2.53321822940859e-13
4.52591664685149e-07
-3.18713421155031e-13
4.52591587768325e-07