/*--------------------------------*- C++ -*----------------------------------*\
| =========                 |                                                 |
| \\      /  F ield         | OpenFOAM: The Open Source CFD Toolbox           |
|  \\    /   O peration     | Version:  2.3.0                                 |
|   \\  /    A nd           | Web:      www.OpenFOAM.org                      |
|    \\/     M anipulation  |                                                 |
\*---------------------------------------------------------------------------*/
FoamFile
{
    version     2.0;
    format      ascii;
    class       volVectorField;
    location    "25000";
    object      U;
}
// * * * * * * * * * * * * * * * * * * * * * * * * * * * * * * * * * * * * * //

dimensions      [0 1 -1 0 0 0 0];

internalField   nonuniform List<vector> 
10000
(
(1.04594873283118 -3.53522232822186e-16 -0.000321968480822617)
(1.08035115511087 2.05969666234187e-14 -0.00012254719714591)
(1.09803417297681 -2.35782590349013e-14 -0.000113765227786049)
(1.12187290974858 -1.46535699971513e-15 -8.84279470769543e-05)
(1.1363966091671 1.2628427401506e-16 -8.66381168329923e-05)
(1.15362419962203 -1.25538025686631e-14 -6.63807415402645e-05)
(1.16488607418636 2.00631467076719e-15 -6.17991347906485e-05)
(1.17657939588042 2.44590158901355e-15 -4.54258405185244e-05)
(1.18410739846815 1.88837752847503e-15 -3.86384410841479e-05)
(1.19103417401593 1.73664809494906e-15 -2.59537284772536e-05)
(1.19503610101851 -2.89186956556742e-15 -1.94695572318398e-05)
(1.19827419991931 -1.54903566380254e-15 -1.07653316854487e-05)
(1.19963904024559 4.08338714696844e-15 -6.28972016155965e-06)
(1.20050061222924 1.70120074238249e-15 -1.2796082443571e-06)
(1.20032641653927 7.39206485995299e-16 9.65956532697932e-07)
(1.19996700120171 8.44370236581387e-16 3.24858963360506e-06)
(1.19913910818396 6.41928391959822e-16 3.87496367412243e-06)
(1.19834488178011 3.91105287861747e-16 4.52023552345841e-06)
(1.19740530763774 2.37934441072579e-15 4.27620471900358e-06)
(1.19660013110483 8.51109774306093e-16 4.13025784810495e-06)
(1.19580248793567 2.75395412224313e-16 3.56045087926326e-06)
(1.19515992153257 4.50865300033639e-16 3.1384053031324e-06)
(1.19457920244094 1.0465831782268e-16 2.54569097731701e-06)
(1.19413400139198 -1.24292375187612e-16 2.10747838304326e-06)
(1.19375648369858 -1.52507960453395e-16 1.62172536523371e-06)
(1.19348135171912 -1.26357632436432e-14 1.27049146707849e-06)
(1.19326065268592 -1.85622170880379e-15 9.23060653400675e-07)
(1.19310974259465 -6.24575811557432e-16 6.79964311346551e-07)
(1.19299590945507 -4.95557041021703e-16 4.56204199147305e-07)
(1.19292557700953 -5.71593472881759e-16 3.06708278594969e-07)
(1.19287727511799 -6.24232429523786e-16 1.76468500157289e-07)
(1.19285368108885 -1.41317799545022e-14 9.53693451142389e-08)
(1.19284127015128 -2.4666018762876e-15 2.82445537430746e-08)
(1.19284134165425 -1.35984491316405e-15 -8.54092789585129e-09)
(1.19284574628364 1.20711498195302e-15 -3.71807514243445e-08)
(1.19285540081283 -2.93330993077346e-16 -4.85505617190932e-08)
(1.19286564635256 -1.33351786362e-14 -5.62482131310093e-08)
(1.19287728919006 -2.19678407333138e-15 -5.49345492105064e-08)
(1.19288781104824 -1.23414450515655e-15 -5.2770588850069e-08)
(1.19289795850982 -1.06460509209269e-15 -4.64885847876402e-08)
(1.19290646709301 -9.64066527765469e-16 -4.08522610199239e-08)
(1.19291399863704 -8.62607985304093e-16 -3.37549845829776e-08)
(1.19291997972263 -1.6824690754192e-14 -2.78910114664347e-08)
(1.19292495877261 -2.32337938168565e-15 -2.18459504116217e-08)
(1.19292871527078 -1.43287178809139e-15 -1.70920390980611e-08)
(1.19293167393487 -1.67254978533859e-15 -1.26586558043134e-08)
(1.19293377632051 8.64920542413661e-16 -9.32144846487533e-09)
(1.19293533122887 -1.0185074557571e-15 -6.41218676498095e-09)
(1.19293634259542 7.95746118585237e-16 -4.32481521285708e-09)
(1.19293702201879 -1.28870249252735e-15 -2.60455203011057e-09)
(1.19293738895828 3.21473285873237e-16 -1.44510325693107e-09)
(1.19293758027898 -8.26775078661282e-16 -5.43532151886703e-10)
(1.19293761238764 -1.72811246313271e-15 6.86755517683778e-12)
(1.19293756866877 7.34447212632492e-16 4.01021078856992e-10)
(1.19293745803941 -1.52396332827175e-15 5.92500742280663e-10)
(1.1929373285093 -2.05274768507238e-17 7.03329544143084e-10)
(1.19293718193402 -1.78326435091972e-15 7.10020793980409e-10)
(1.19293704403026 -1.37540024283022e-16 6.8496054993403e-10)
(1.19293691195525 -1.81746374033711e-15 6.15145933098614e-10)
(1.19293679859734 -5.10905286515327e-16 5.40289200098194e-10)
(1.19293669856455 -1.95674923495972e-15 4.53485060892571e-10)
(1.19293661819933 -7.0838212573327e-16 3.73073486854557e-10)
(1.19293655087433 -1.51238546984519e-15 2.9730261883333e-10)
(1.19293650042021 -3.89127078987101e-16 2.29868478575385e-10)
(1.19293645939771 4.16225751982055e-16 1.74981485984458e-10)
(1.19293643177693 -1.4835735744938e-15 1.24783946989152e-10)
(1.19293640892944 -4.6791091629411e-16 9.15491455217617e-11)
(1.19293639696147 -1.70878234698317e-15 5.58423656653308e-11)
(1.19293638491436 -5.40004837153396e-16 4.15840693081051e-11)
(1.19293638299673 -1.85039486777542e-15 1.46952006642802e-11)
(1.19293637591976 -7.10776793653698e-16 1.6581229246003e-11)
(1.1929363805181 -3.61688252255936e-16 -8.20237072487305e-12)
(1.19293637402105 1.236569766388e-16 8.61127816921629e-12)
(1.19293638365539 -1.16504655690718e-15 -2.13733654516171e-11)
(1.19293637424547 -1.77184272028397e-15 1.19760073588388e-11)
(1.19293638933494 -8.70709319382991e-16 -3.1653606176372e-11)
(1.19293637365703 -1.74442167919447e-15 2.37242507275817e-11)
(1.19293639649754 -1.01341429798891e-15 -4.45329687314519e-11)
(1.19293637043503 -5.42631047893265e-16 4.36423657519207e-11)
(1.19293640550291 -4.29585013738099e-16 -6.50775092675384e-11)
(1.19293636308651 -1.50990876962937e-15 7.42526848050412e-11)
(1.19293641782715 -1.16023577915517e-15 -9.91454589548491e-11)
(1.19293634977501 -1.70089504123432e-15 1.21157652906557e-10)
(1.19293643608111 -8.67526208251664e-16 -1.54883480273848e-10)
(1.19293632766527 -1.59618247739864e-15 1.94043966806314e-10)
(1.19293646436218 9.16974576866707e-17 -2.44699402243488e-10)
(1.19293629212889 -8.92510517079954e-16 3.08608356245496e-10)
(1.19293650899714 -1.45133021503492e-15 -3.8809404048607e-10)
(1.19293623562039 -1.04012815071119e-15 4.89834954990499e-10)
(1.19293657982428 -1.41942727735506e-15 -6.16045438817882e-10)
(1.19293614597274 -2.19865925946436e-15 7.77286135889089e-10)
(1.19293669229026 -1.15378729788363e-15 -9.77857666541302e-10)
(1.19293600374003 -7.42829262766754e-16 1.23356378067592e-09)
(1.19293687081775 -9.00041412859278e-16 -1.55230634799326e-09)
(1.19293577813791 -2.11538755694994e-16 1.95050259244306e-09)
(1.1929371571468 -8.7390763507024e-16 -2.69405031904581e-09)
(1.1929355142911 -9.0594751186339e-16 -6.79695709361324e-10)
(1.19293915343478 -8.34149964827316e-16 -1.58483774663728e-07)
(1.19299833687231 -6.39953447378686e-16 2.40678135219058e-08)
(1.19292217402227 -8.17955827186043e-16 1.97035635018468e-07)
(1.04591773693229 -7.26646055139815e-16 -0.000549385317459545)
(1.08028482442754 4.17454581492289e-15 -0.00020721729670105)
(1.09791786423035 -1.55109791742412e-14 -0.000194179000578082)
(1.12168618338617 -1.91443092979932e-15 -0.000149928397060901)
(1.13611276222977 3.28377157538573e-16 -0.000147887961320831)
(1.15322824741714 2.64362104133581e-16 -0.000112544766487223)
(1.16436639871856 4.84658376667599e-15 -0.000105331617909533)
(1.17593654400244 5.01730082123234e-15 -7.69114745802353e-05)
(1.18334561182308 3.82983189039204e-15 -6.56878006444129e-05)
(1.19016896606664 3.5406326326469e-15 -4.38358494436967e-05)
(1.19408579769448 -6.12898212794847e-15 -3.30169564288319e-05)
(1.1972613762535 -3.1056186393748e-15 -1.81010566612217e-05)
(1.19858336712597 8.59466425863927e-15 -1.06283843430458e-05)
(1.19941998520506 3.3742245991769e-15 -2.06498736871041e-06)
(1.19923371409442 1.47041202635707e-15 1.66871799776048e-06)
(1.19887209790941 1.73039358419086e-15 5.57055315377226e-06)
(1.19804803651243 1.30429506908992e-15 6.5876930475273e-06)
(1.19726150772228 7.89073261456425e-16 7.69810329837819e-06)
(1.19633127040896 4.9082891945725e-15 7.25796075354407e-06)
(1.19553602000473 1.68051009320918e-15 7.01990849416666e-06)
(1.19474786779945 5.43100491604854e-16 6.03850008022484e-06)
(1.19411401669422 9.27990022799423e-16 5.32871730283422e-06)
(1.19354088083386 2.0064185110298e-16 4.31500905286995e-06)
(1.19310213772239 -2.62734701412651e-16 3.57578106908358e-06)
(1.1927299116139 -3.18019880293609e-16 2.74727062353634e-06)
(1.19245904426949 -1.37175770179945e-14 2.1542929059305e-06)
(1.19224166461948 -3.22694139518932e-15 1.56254716560041e-06)
(1.19209329324938 -1.22671801053845e-15 1.15213373340101e-06)
(1.1919813284548 -1.00775169742087e-15 7.71346556817505e-07)
(1.19191233761323 -1.17094201770697e-15 5.19098971150396e-07)
(1.19186494897551 -1.28268545669365e-15 2.9757531603411e-07)
(1.1918419481153 -1.1492872818872e-14 1.60914893521147e-07)
(1.19182988365958 -4.6419938172592e-15 4.67700727493133e-08)
(1.19183012807032 -2.73821227301673e-15 -1.50289888271876e-08)
(1.19183458082334 2.56101710165507e-15 -6.37441553792708e-08)
(1.19184420495385 -6.63434206643159e-16 -8.26515581890472e-08)
(1.1918543695944 -1.205141051312e-14 -9.57774069166826e-08)
(1.19186590644326 -3.88905837241837e-15 -9.33163009375657e-08)
(1.19187631143268 -2.48386488296829e-15 -8.96856594297185e-08)
(1.19188634356701 -2.16914009123942e-15 -7.88924968192998e-08)
(1.19189474407331 -1.96626066680981e-15 -6.93598831561283e-08)
(1.19190217959204 -1.76461709670572e-15 -5.7243983018811e-08)
(1.19190807775119 -1.03491738573404e-14 -4.73193643789856e-08)
(1.19191298779383 -4.44198027628137e-15 -3.70244966198111e-08)
(1.19191668810569 -2.89185704169287e-15 -2.89787673002042e-08)
(1.19191960248792 -3.42708528488938e-15 -2.14384038143316e-08)
(1.19192167072094 1.86785112654828e-15 -1.57921318921772e-08)
(1.19192320019363 -2.15299354849376e-15 -1.08481944350707e-08)
(1.19192419313088 1.6905624763208e-15 -7.31856292642002e-09)
(1.19192485981571 -2.71340353934802e-15 -4.39702096867678e-09)
(1.19192521835547 7.18794778210098e-16 -2.43837030096684e-09)
(1.19192540461045 -1.73330390790547e-15 -9.08023586482819e-10)
(1.19192543404054 -3.56576304742812e-15 2.00386545657471e-11)
(1.19192538935762 1.5776630217275e-15 6.88709900883915e-10)
(1.19192527889872 -3.2001967406842e-15 1.00982332555501e-09)
(1.19192515026907 1.63599185038733e-17 1.19761899390398e-09)
(1.19192500498826 -3.71124475881164e-15 1.20669060116316e-09)
(1.19192486856019 -2.18519226770326e-16 1.16399505130199e-09)
(1.19192473797555 -3.77801395154153e-15 1.04427461805247e-09)
(1.19192462603173 -9.91445056889513e-16 9.17172788408195e-10)
(1.19192452727073 -4.05353464463337e-15 7.69294455859655e-10)
(1.19192444801232 -1.39653162761366e-15 6.32790918993858e-10)
(1.19192438161583 -3.1206000654777e-15 5.04075632931601e-10)
(1.19192433192248 -7.52924030353541e-16 3.89536064857961e-10)
(1.19192429150253 8.820117680299e-16 2.96579818391094e-10)
(1.19192426434951 -3.10423744375553e-15 2.11145361537349e-10)
(1.1919242418504 -9.11509110062448e-16 1.55211090520021e-10)
(1.1919242301375 -3.53964671459776e-15 9.41147633591561e-11)
(1.19192421826452 -1.06572340262431e-15 7.071579268859e-11)
(1.19192421646519 -3.83112205679592e-15 2.41893478432771e-11)
(1.1919242094556 -1.39823802393232e-15 2.86607087703119e-11)
(1.1919242140946 -7.25652742573997e-16 -1.49052598296667e-11)
(1.19192420760721 2.70073898357264e-16 1.56288249425849e-11)
(1.19192421724563 -2.42969083918958e-15 -3.77125708169462e-11)
(1.19192420781839 -3.64404917141855e-15 2.20395917358114e-11)
(1.19192422290084 -1.74488520375911e-15 -5.5938464065278e-11)
(1.19192420719477 -3.59815831122082e-15 4.30367049862806e-11)
(1.19192423003161 -2.04115081705149e-15 -7.90727405739125e-11)
(1.19192420393606 -1.09088537597111e-15 7.84877069516687e-11)
(1.19192423901187 -8.73487793901164e-16 -1.15989440655491e-10)
(1.1919241965567 -3.12707517851576e-15 1.3303157949212e-10)
(1.19192425132287 -2.34888339370287e-15 -1.77069104536645e-10)
(1.19192418322047 -3.49644491640303e-15 2.16746684377095e-10)
(1.19192426957662 -1.74206107755672e-15 -2.76848518408094e-10)
(1.19192416108852 -3.28202676620196e-15 3.46964690863602e-10)
(1.1919242978706 -2.28349687563643e-15 -4.3749960094344e-10)
(1.19192412552659 -1.87216785579222e-15 5.51750376981485e-10)
(1.19192434253252 -2.98752819552147e-15 -6.93907071311697e-10)
(1.19192406898134 -2.10983670279647e-15 8.75751168459768e-10)
(1.19192441340408 -2.91617327123416e-15 -1.10147400550887e-09)
(1.19192397927545 -2.27158810976616e-15 1.38968216739273e-09)
(1.1919245259397 -2.32209006142419e-15 -1.74837374993109e-09)
(1.19192383694894 -1.50322535299369e-15 2.20545352120638e-09)
(1.1919247045762 -1.83848593376733e-15 -2.77543680103946e-09)
(1.1919236111956 -1.5311536551069e-15 3.48787024304536e-09)
(1.19192499104234 -1.81680477381819e-15 -4.79792738133956e-09)
(1.19192334648227 -1.69263833214485e-15 -8.89034398759405e-10)
(1.19192696581993 -1.67060806110565e-15 -2.70695020172337e-07)
(1.19198567030293 -1.60396489104599e-15 4.13650374169717e-08)
(1.19191002785404 -1.68430363728696e-15 3.59056904312269e-07)
(1.04585280403626 -1.0776049965127e-15 -0.000884860566632967)
(1.08014671231908 2.51557984216602e-16 -0.00033239590690887)
(1.09767280262033 -1.23814342976779e-14 -0.000313566549879141)
(1.12129279760166 -1.62048225486773e-15 -0.000239557384671148)
(1.13551687210606 6.96108156933678e-16 -0.000238022501837551)
(1.15240177034414 1.03924576816876e-14 -0.000179352057264673)
(1.16328588754984 7.78369468930475e-15 -0.000168720850412631)
(1.17460360394983 7.38264774951892e-15 -0.000122096564077503)
(1.18176996098019 5.48572614778106e-15 -0.000104710449481609)
(1.18838332581227 5.25410369147206e-15 -6.92557871900737e-05)
(1.19212803182438 -9.88560389472013e-15 -5.23971497986192e-05)
(1.19517753874981 -4.17931436160729e-15 -2.83893319082522e-05)
(1.19641331797554 9.54819953746121e-15 -1.67640172733788e-05)
(1.1971998607683 4.46574051774027e-15 -3.03132240015925e-06)
(1.19698948043286 1.98394378718201e-15 2.73916664249891e-06)
(1.19662366949861 2.48838876820192e-15 8.99779842389258e-06)
(1.19580751800159 1.85036722250576e-15 1.0515854333638e-05)
(1.19503667673141 1.10824244376541e-15 1.23123651293017e-05)
(1.19412539978445 9.13317119130626e-15 1.15556001470943e-05)
(1.19335028787207 2.21486432707631e-15 1.11963000653949e-05)
(1.19258137470088 6.82411289595885e-16 9.60328432438566e-06)
(1.19196518748658 1.40382556040028e-15 8.48700946111847e-06)
(1.19140741410655 2.44641569633886e-16 6.85665637509229e-06)
(1.19098175264333 -4.14490355068661e-16 5.68937863724879e-06)
(1.19062024102021 -4.65692008287889e-16 4.36168776415527e-06)
(1.19035800739264 -1.12308250816678e-14 3.42438670920157e-06)
(1.19014734438528 -3.83765289837689e-15 2.47794108104675e-06)
(1.19000410852904 -1.63393480991393e-15 1.82926998404398e-06)
(1.18989592053214 -1.45601525999169e-15 1.22097524134041e-06)
(1.18982964028686 -1.72911055894325e-15 8.22649935622192e-07)
(1.18978409473115 -1.88923164616783e-15 4.69065139346391e-07)
(1.18976228961916 -1.25439421521722e-14 2.53694605250782e-07)
(1.1897509217916 -5.89878118393486e-15 7.1601007542638e-08)
(1.18975151238157 -3.82743086980868e-15 -2.53492565110603e-08)
(1.18975605959636 3.89634236899011e-15 -1.03063154384915e-07)
(1.18976561969554 -1.28137286358358e-15 -1.32276610608042e-07)
(1.18977561847587 -1.20948686013662e-14 -1.53257387097082e-07)
(1.18978693907036 -5.04924312020821e-15 -1.48809526577314e-07)
(1.18979710612643 -3.51293810033818e-15 -1.43091057483414e-07)
(1.18980690376075 -3.1481760288083e-15 -1.25607750474258e-07)
(1.18981508470143 -2.86554151106493e-15 -1.10487910015103e-07)
(1.18982232526817 -2.56520712888297e-15 -9.10391685766869e-08)
(1.18982805516111 -1.14729996902243e-14 -7.52915403232132e-08)
(1.18983282524947 -5.92357731223006e-15 -5.88232043344129e-08)
(1.18983641166078 -4.09782779510699e-15 -4.60605538106888e-08)
(1.18983923631598 -5.06001715140586e-15 -3.40215400361798e-08)
(1.18984123537843 4.85870868459047e-15 -2.50705021142998e-08)
(1.18984271336245 -3.46997603212754e-15 -1.718707987556e-08)
(1.18984366901604 2.45225686273844e-15 -1.15968366164681e-08)
(1.18984430995023 -4.36722537706323e-15 -6.94290823067537e-09)
(1.18984465152806 1.32373569141037e-15 -3.84549086781255e-09)
(1.18984482757145 -2.73857789378648e-15 -1.40988824823894e-09)
(1.18984485162014 -5.38070440153728e-15 5.36442372081023e-11)
(1.1898448050299 1.93950503753403e-15 1.11665615249602e-09)
(1.1898446949527 -4.98778999033878e-15 1.61886662978439e-09)
(1.18984456817602 3.36614286775408e-16 1.91655727922232e-09)
(1.18984442553881 -5.72565573901642e-15 1.92563445900487e-09)
(1.18984429211596 -1.92935648813775e-17 1.85692198482094e-09)
(1.1898441645613 -5.82336922513769e-15 1.66341721059968e-09)
(1.18984405548949 -2.73216663636205e-15 1.46072739395072e-09)
(1.18984395930925 -6.15226808342455e-15 1.22398698481201e-09)
(1.18984388229544 -1.41711211095681e-15 1.00649969787465e-09)
(1.18984381778076 -4.66871085562246e-15 8.01297639842514e-10)
(1.18984376962847 -4.83394368183759e-16 6.18707473730849e-10)
(1.18984373042838 1.43692397786931e-15 4.71158834352978e-10)
(1.18984370422189 -4.87290909892714e-15 3.34605942344732e-10)
(1.18984368242717 -1.53589138436906e-15 2.46627783534513e-10)
(1.18984367122974 -5.40579166351234e-15 1.48271734391737e-10)
(1.18984365970824 -1.83916913399572e-15 1.12824250402971e-10)
(1.18984365814754 -5.80804666215495e-15 3.67796693598916e-11)
(1.18984365127347 -2.1510809968218e-15 4.67489293217892e-11)
(1.18984365599435 -1.22763416640476e-15 -2.59477565058576e-11)
(1.18984364952569 -1.54630755769727e-16 2.71258251123978e-11)
(1.18984365917247 -3.74004454308258e-15 -6.32463726321542e-11)
(1.1898436497093 -5.4305463549668e-15 3.89103253706977e-11)
(1.18984366477813 -2.41809827149463e-15 -9.39894799505096e-11)
(1.18984364901406 -5.42229299225885e-15 7.47004443489678e-11)
(1.18984367184458 -2.7432687616897e-15 -1.33660159982156e-10)
(1.18984364568085 -1.50615015960544e-15 1.348059559352e-10)
(1.18984368077449 -1.27061402735206e-15 -1.96993037088549e-10)
(1.18984363823897 -4.7577658886772e-15 2.27418493172268e-10)
(1.18984369305966 -3.896377862415e-15 -3.01502163345061e-10)
(1.18984362485259 -5.26365124068785e-15 3.69844927585211e-10)
(1.1898437113145 -2.37997441224182e-15 -4.71895154116214e-10)
(1.18984360267552 -4.91733502397532e-15 5.91674276379153e-10)
(1.18984373963696 -4.2868905801804e-15 -7.45966890373544e-10)
(1.18984356706151 -2.79833223902583e-15 9.40748590958442e-10)
(1.18984378435713 -4.46547165585064e-15 -1.18322689057626e-09)
(1.18984351044119 -3.0149551534039e-15 1.49316321860206e-09)
(1.1898438553244 -4.33592882044948e-15 -1.87818246413623e-09)
(1.18984342061629 -2.31905962057845e-15 2.36944916615658e-09)
(1.18984396801009 -3.38094266100729e-15 -2.98121640944435e-09)
(1.18984327809811 -2.09814435900149e-15 3.76038570067035e-09)
(1.18984414688168 -2.71475317089854e-15 -4.73242650128476e-09)
(1.18984305203453 -2.68106327410778e-15 5.94844213357554e-09)
(1.1898444336304 -2.69400474803029e-15 -8.1367462192281e-09)
(1.18984278471321 -1.99786248919315e-15 -7.52329157276744e-10)
(1.18984636621358 -2.42812934222858e-15 -4.3287827019975e-07)
(1.18990408773608 -2.46138330086104e-15 6.43160726200671e-08)
(1.18982951490116 -2.47660713541893e-15 6.44814360375901e-07)
(1.04575740041417 -1.45986414224083e-15 -0.00121514146077673)
(1.07994423181218 -2.53870180555993e-15 -0.000455011980578213)
(1.09731205184454 -1.21100947455267e-14 -0.000430111114780558)
(1.12071448677261 -8.22992336501947e-16 -0.000326247708633993)
(1.13464693032747 1.24162080760683e-15 -0.000324684592565446)
(1.15120472420824 6.22803195035738e-15 -0.000242924004840454)
(1.16172890915724 1.02103206419599e-14 -0.00022864805295889)
(1.17269024916732 9.7098913666658e-15 -0.000164327387528723)
(1.17951693186364 6.97457712916933e-15 -0.000140975874747387)
(1.18583900611934 7.05939659006725e-15 -9.25538457296982e-05)
(1.18934655258808 -1.49733922062633e-14 -7.00802635223168e-05)
(1.19222336747895 -4.69445085797862e-15 -3.7565886315335e-05)
(1.19334160020725 9.41125084719018e-15 -2.21683672972283e-05)
(1.1940602936984 4.81372496127526e-15 -3.65449116573363e-06)
(1.19381763066896 2.31734882010585e-15 3.92954938192114e-06)
(1.19344680584032 3.2171683193343e-15 1.23503625417943e-05)
(1.19264210933215 2.32608335901184e-15 1.42807467277352e-05)
(1.19189332113638 1.37268353019858e-15 1.66958128963796e-05)
(1.19100849538739 5.35315635594112e-15 1.56122664104601e-05)
(1.19026139736458 2.28246448004121e-15 1.51284326002038e-05)
(1.18951919505761 7.00285654207158e-16 1.29473196261684e-05)
(1.18892750937115 1.94472705334943e-15 1.14461080567509e-05)
(1.18839102321386 2.16743774639931e-16 9.23102634919149e-06)
(1.18798347766029 -6.03642426471603e-16 7.66201563751755e-06)
(1.18763679024563 -6.12129332375721e-16 5.86396796694162e-06)
(1.1873864941222 -9.17067322983964e-15 4.60497623964715e-06)
(1.18718510812927 -3.74362643285791e-15 3.32573820123092e-06)
(1.18704895915796 -1.9014515070481e-15 2.45533974185197e-06)
(1.18694597561619 -1.89236176296229e-15 1.63439173065207e-06)
(1.18688342542408 -2.30948937013909e-15 1.10073075893962e-06)
(1.18684041023424 -2.5106612985196e-15 6.24204447877501e-07)
(1.18682024216807 -7.41170876057908e-15 3.36372088958599e-07)
(1.18680982270194 -6.86315444740903e-15 9.13604168648349e-08)
(1.18681087955852 -4.75963813149639e-15 -3.75664561752275e-08)
(1.18681554731898 8.17527909450306e-16 -1.41892685477953e-07)
(1.18682501069689 -2.31608692619045e-15 -1.80129354842126e-07)
(1.18683477354674 -9.47808298227673e-15 -2.08104979196573e-07)
(1.18684578999676 -5.67102018843107e-15 -2.01407746985592e-07)
(1.18685562414385 -4.43826277325277e-15 -1.93521666043703e-07)
(1.18686509466217 -4.10262703497928e-15 -1.69554808194631e-07)
(1.18687296995665 -3.75060519433441e-15 -1.49095801599427e-07)
(1.18687993957819 -3.34505022965766e-15 -1.22672082214821e-07)
(1.18688543592049 -8.86170468839521e-15 -1.0143031123032e-07)
(1.18689001198666 -7.03129739956057e-15 -7.91376330589527e-08)
(1.18689344066536 -5.17710566257936e-15 -6.19524876396622e-08)
(1.18689614120264 -6.75212658797687e-15 -4.56915508804979e-08)
(1.18689804468911 -2.49275358811855e-17 -3.36565499903938e-08)
(1.18689945162092 -5.23487354609343e-15 -2.30263423788007e-08)
(1.18690035589921 -1.33805709659745e-15 -1.55219013774749e-08)
(1.18690096141883 -6.52519224940934e-15 -9.25615631349006e-09)
(1.18690127972934 -2.41847437471943e-15 -5.106791738616e-09)
(1.18690144182583 -4.03973939158919e-15 -1.83344893371206e-09)
(1.18690145858596 -7.40255703100628e-15 1.20321299887859e-10)
(1.18690140949687 -2.14852221835026e-15 1.54481985674098e-09)
(1.18690130006083 -7.31799184954204e-15 2.20869434042614e-09)
(1.18690117593761 -3.65119146920968e-15 2.60396105655453e-09)
(1.18690103702585 -8.16046196798781e-15 2.60805410187793e-09)
(1.18690090781167 -4.1331488199023e-15 2.51176033641316e-09)
(1.18690078448502 -8.29073604793223e-15 2.24634231790813e-09)
(1.18690067941159 -4.98880274911501e-15 1.97115486566699e-09)
(1.1869005868176 -8.59715310038809e-15 1.64982520460605e-09)
(1.18690051291859 -5.50486894604229e-15 1.35572987180885e-09)
(1.18690045101168 -6.41871014487913e-15 1.07841379576284e-09)
(1.18690040499259 -4.31862765336914e-15 8.31841465107307e-10)
(1.18690036747884 -2.61414897726447e-15 6.33190570303564e-10)
(1.18690034257941 -7.08955478350267e-15 4.48719480373813e-10)
(1.18690032175586 -4.54797031666629e-15 3.31036401058088e-10)
(1.18690031126823 -7.5595176374001e-15 1.97743060353471e-10)
(1.18690030022943 -4.91082618971275e-15 1.51493754397311e-10)
(1.18690029899598 -8.10380515009859e-15 4.76191016973962e-11)
(1.18690029230646 -5.21899879280481e-15 6.33878307769448e-11)
(1.18690029713891 -4.22107633887003e-15 -3.70479193775013e-11)
(1.18690029069384 -3.14408235019524e-15 3.8029537446384e-11)
(1.18690030035176 -5.34723718411691e-15 -8.78935118360824e-11)
(1.18690029083691 -7.33044889610253e-15 5.52815971834096e-11)
(1.18690030588762 -5.26391816394535e-15 -1.30544566085941e-10)
(1.18690029004131 -7.46431828772449e-15 1.05429666811177e-10)
(1.18690031286497 -5.53207338421092e-15 -1.86137833497968e-10)
(1.18690028660442 -4.1887721510143e-15 1.89313301262231e-10)
(1.18690032172602 -4.05336540624807e-15 -2.74990311457275e-10)
(1.18690027907572 -6.6348597406471e-15 3.18607378772496e-10)
(1.18690033397706 -5.75786057993617e-15 -4.21449870213525e-10)
(1.18690026561954 -7.18240513372879e-15 5.17624194667198e-10)
(1.18690035223604 -5.16847837938929e-15 -6.60015178917289e-10)
(1.1869002433793 -6.73355200471713e-15 8.27797954307351e-10)
(1.18690038060189 -6.10386090030921e-15 -1.04354867969174e-09)
(1.18690020769182 -4.84564849449231e-15 1.31604983279075e-09)
(1.18690042540874 -6.06457456539859e-15 -1.6553075823191e-09)
(1.18690015096515 -4.99884501180945e-15 2.08882104777138e-09)
(1.18690049651788 -5.84600285245216e-15 -2.6275281680115e-09)
(1.18690006097147 -3.58340466231273e-15 3.31469897044367e-09)
(1.18690060942606 -4.52420002094459e-15 -4.17061578857659e-09)
(1.18689991818152 -3.28804453084182e-15 5.26055212889174e-09)
(1.18690078864653 -3.6356661625538e-15 -6.6204330941374e-09)
(1.18689969167782 -3.72895850910031e-15 8.32262589647075e-09)
(1.18690107581903 -3.55850689715517e-15 -1.13524068141631e-08)
(1.18689942039272 -2.961160268035e-15 -5.0635182759566e-10)
(1.18690295105131 -3.21929698986986e-15 -5.88148729557797e-07)
(1.18695928145537 -3.29900681872412e-15 8.76828029141395e-08)
(1.18688622733502 -3.26905828076978e-15 9.20276178840535e-07)
(1.04563177981412 -1.87038647187295e-15 -0.00152393755385743)
(1.07967873761283 -4.90740892845522e-15 -0.00056975366278696)
(1.09683856827938 -5.66408561254505e-15 -0.000537153432191747)
(1.11995711504553 7.77587755279664e-16 -0.000406255848052789)
(1.13351889416771 1.9085536612175e-15 -0.000402763919335657)
(1.14966436202585 1.33420440669134e-14 -0.00030029630345257)
(1.15973750819106 1.28954105521265e-14 -0.000281497645869952)
(1.17025647063138 1.19353338702197e-14 -0.000201399799180056)
(1.17666617992292 8.19837208123318e-15 -0.000172164985846061)
(1.18263450763972 8.87614191172244e-15 -0.00011241776287041)
(1.18585650699787 -1.32391311749052e-14 -8.48605269931962e-05)
(1.18852698322266 -4.29215353591239e-15 -4.50809373438396e-05)
(1.18950564499151 8.02233347737761e-15 -2.64078481564324e-05)
(1.19014449786522 4.94280067764959e-15 -3.87885347983444e-06)
(1.18986449256911 2.48703091471991e-15 5.24058820311269e-06)
(1.18948888207689 3.98875232011178e-15 1.54432591817545e-05)
(1.18869891340533 2.70017835838968e-15 1.77005604863794e-05)
(1.18797742095358 1.56083166330559e-15 2.05957147623801e-05)
(1.18712500752408 4.1567721261388e-15 1.92100395150974e-05)
(1.18641209587823 2.19034043826264e-15 1.85855158983938e-05)
(1.18570240363798 6.03463385097228e-16 1.58837471436815e-05)
(1.18514049702516 2.56750950178026e-15 1.40300936137386e-05)
(1.18462984669484 8.25963516179992e-17 1.13024166434271e-05)
(1.18424426791227 -8.31960303196766e-16 9.37493015461152e-06)
(1.18391553399915 -7.44596204188338e-16 7.16676573423444e-06)
(1.1836796817278 -6.07733061006861e-15 5.62389038253961e-06)
(1.18348950509764 -3.4600828122722e-15 4.05581479831049e-06)
(1.18336190876757 -2.06598941750597e-15 2.99121446060399e-06)
(1.18326519455665 -2.31953338522332e-15 1.98662569087388e-06)
(1.18320712924579 -2.90828566008969e-15 1.33524328265613e-06)
(1.18316714730021 -3.13100634136726e-15 7.53226901496125e-07)
(1.1831489342439 -6.15316282502892e-15 4.02878130521004e-07)
(1.18313963891842 -7.70748108973252e-15 1.04406376625792e-07)
(1.18314124037791 -5.53007246398552e-15 -5.17329817462078e-08)
(1.18314603789204 -1.30289116403447e-15 -1.7825300777582e-07)
(1.18315537123389 -3.51957068203057e-15 -2.23851251573112e-07)
(1.18316483818155 -7.83929087089395e-15 -2.57255879054018e-07)
(1.18317547858302 -6.13712190627605e-15 -2.48262178332225e-07)
(1.18318490380939 -5.2754196983235e-15 -2.38076811446672e-07)
(1.18319397409478 -5.01385628923964e-15 -2.08264157166921e-07)
(1.18320147642481 -4.59824509674243e-15 -1.82922630246919e-07)
(1.18320811612628 -4.07724219599849e-15 -1.50324955876754e-07)
(1.18321332856468 -7.43988869700062e-15 -1.24181532174412e-07)
(1.18321766915045 -8.08566843108702e-15 -9.67796113629846e-08)
(1.18322090666172 -6.11574298212245e-15 -7.56944228409361e-08)
(1.18322345699475 -8.49098295213119e-15 -5.57538275855539e-08)
(1.18322524498623 -1.8200882009285e-15 -4.10206461076408e-08)
(1.1832265662061 -7.2258960487988e-15 -2.80105717595226e-08)
(1.18322740862771 -4.1650913144869e-15 -1.88430528145557e-08)
(1.18322797161849 -8.91480527865711e-15 -1.11899780296121e-08)
(1.18322826208391 -5.10294222471194e-15 -6.13384369555247e-09)
(1.18322840758769 -5.37301466988405e-15 -2.14588350057658e-09)
(1.18322841577599 -9.65983816090645e-15 2.25476730465595e-10)
(1.18322836388142 -5.56877855088864e-15 1.95305999879292e-09)
(1.18322825539955 -9.81546478514988e-15 2.75016118440438e-09)
(1.18322813463022 -6.51430036899379e-15 3.2222115715262e-09)
(1.18322800033626 -1.07829103332172e-14 3.21677396075539e-09)
(1.18322787629795 -7.12498191729301e-15 3.0913121670882e-09)
(1.18322775814734 -1.09395089048952e-14 2.76009902109629e-09)
(1.18322765795442 -7.85484851870515e-15 2.41887391108182e-09)
(1.1832275697276 -1.11497230211362e-14 2.02215673909903e-09)
(1.18322749961481 -8.29811185224354e-15 1.65995910520699e-09)
(1.18322744087222 -8.11631139854588e-15 1.31902186901325e-09)
(1.18322739743784 -6.93996892661748e-15 1.01629721874599e-09)
(1.18322736196388 -5.69371251216439e-15 7.72783936223249e-10)
(1.18322733864325 -9.49472775101304e-15 5.4674063792372e-10)
(1.18322731899025 -7.15012350136442e-15 4.02962728494483e-10)
(1.18322730935686 -9.81502938570528e-15 2.39785168936848e-10)
(1.18322729889686 -7.66657731878493e-15 1.8378575466483e-10)
(1.18322729805519 -1.04948022140308e-14 5.65465253090779e-11)