/*--------------------------------*- C++ -*----------------------------------*\
| =========                 |                                                 |
| \\      /  F ield         | OpenFOAM: The Open Source CFD Toolbox           |
|  \\    /   O peration     | Version:  2.3.x                                 |
|   \\  /    A nd           | Web:      www.OpenFOAM.org                      |
|    \\/     M anipulation  |                                                 |
\*---------------------------------------------------------------------------*/
FoamFile
{
    version     2.0;
    format      ascii;
    class       volScalarField;
    location    "20000";
    object      epsilon;
}
// * * * * * * * * * * * * * * * * * * * * * * * * * * * * * * * * * * * * * //

dimensions      [0 2 -3 0 0 0 0];

internalField   nonuniform List<scalar> 
10000
(
0.00631650643587585
0.00495380716308382
0.00400109626904391
0.0033233417052164
0.00284247129625832
0.00251384109591485
0.00231368649573587
0.00223232800944547
0.00227296343670424
0.00244657288293286
0.00276760971489913
0.00323855661757773
0.00383782209931683
0.0045127025459903
0.00519406143476559
0.00581640865440032
0.00633643254015878
0.00673611372219885
0.00701835963169312
0.00719821141884349
0.00729610682541628
0.0073327454966006
0.00732673551980853
0.00729334491695899
0.00724448644474611
0.00718891322698408
0.00713278474020948
0.00708012411711343
0.00703335119063737
0.0069936372191325
0.00696129850906181
0.0069360544465766
0.0069172599232958
0.00690405296426876
0.00689548970618602
0.00689062364359606
0.00688857350048645
0.00688855501850918
0.00688990480783249
0.00689208249684925
0.00689466914513964
0.00689735430897047
0.00689992304415235
0.0069022385732121
0.00690422587789401
0.00690585651495933
0.00690713618067148
0.00690809272676336
0.00690876713085715
0.00690920613720475
0.00690945727640147
0.00690956522787158
0.00690956978284787
0.00690950466295469
0.00690939726563596
0.00690926883394811
0.00690913506425125
0.00690900683837067
0.00690889109695815
0.00690879160677393
0.00690870977755073
0.00690864535920055
0.00690859700975972
0.00690856273572925
0.0069085402445179
0.00690852719400774
0.00690852137049681
0.00690852079485485
0.00690852378186891
0.00690852895722615
0.00690853524983408
0.00690854186463684
0.0069085482465677
0.00690855403971509
0.00690855904505532
0.00690856318202288
0.00690856645701054
0.00690856893410198
0.00690857071153237
0.00690857190354284
0.00690857262719651
0.00690857299341829
0.00690857310121941
0.00690857303499458
0.00690857286329149
0.00690857263943273
0.00690857240275471
0.0069085721805543
0.00690857199002934
0.00690857184040037
0.00690857173488938
0.00690857167257765
0.00690857164958414
0.00690857166045331
0.00690857169884382
0.00690857175838039
0.006908571833009
0.00690857191735757
0.00690857200677691
0.00690857209751162
0.00631690331337173
0.00495633619365881
0.0040055765932336
0.00333027756799919
0.00285273363693202
0.00252881538654956
0.00233547847242871
0.0022639022236928
0.0023184972440575
0.00251106363271946
0.00285600210622328
0.00335341139459328
0.00397768533255803
0.0046719341552989
0.00536507253986957
0.00599197866757751
0.00651128105834052
0.0069070572093952
0.00718393967787195
0.00735807962862363
0.0074505775575319
0.0074824468694824
0.00747242503520036
0.00743578304621584
0.00738438522204489
0.00732690031544742
0.0072693977555052
0.00721580584729254
0.00716845793222266
0.00712844255297355
0.00709600620282508
0.00707080759204892
0.00705215261702789
0.00703913916950149
0.00703079326685632
0.00702614586103601
0.00702430068547162
0.00702446392786499
0.00702596754062638
0.00702826971083517
0.00703095266889491
0.0070337085724444
0.00703632607039848
0.0070386722607866
0.00704067594806432
0.00704231222603137
0.00704358995370049
0.00704453960464524
0.0070452042689562
0.00704563228877091
0.00704587236035587
0.00704596994254236
0.00704596530706768
0.00704589241270612
0.00704577872267109
0.00704564542026245
0.00704550806681786
0.00704537736439401
0.00704526005985024
0.00704515972327738
0.00704507758543715
0.0070450132402526
0.00704496521566365
0.00704493141322824
0.00704490946019176
0.0070448969558219
0.00704489164667729
0.00704489152898674
0.00704489490495625
0.00704490039645113
0.00704490693484166
0.00704491373150047
0.00704492024006593
0.00704492611428892
0.00704493116463474
0.00704493531936265
0.00704493859274791
0.0070449410554972
0.00704494281115896
0.00704494397804552
0.00704494467618838
0.00704494501852356
0.00704494510529606
0.00704494502153838
0.00704494483597218
0.00704494460179359
0.00704494435800023
0.00704494413144097
0.00704494393881575
0.00704494378884422
0.00704494368429523
0.00704494362384688
0.00704494360328311
0.00704494361686475
0.00704494365804841
0.00704494372029972
0.00704494379746081
0.00704494388409353
0.00704494397552048
0.00704494406798277
0.00631891089622082
0.00496200395710674
0.00401539386948484
0.0033452566166103
0.00287484166292234
0.00256102132151395
0.002382388157708
0.00233194845829264
0.00241670091928935
0.00265000940244003
0.00304573437263426
0.00359845255798275
0.00427396582982104
0.00500705927323038
0.00572317773512896
0.0063584202985767
0.00687554769589825
0.00726290616771647
0.00752857890383233
0.00769091410515601
0.00777231923174263
0.00779441889754853
0.00777619936853631
0.00773292775511003
0.0076763644204797
0.00761500161399305
0.00755472243723222
0.00749925907691108
0.00745076624371801
0.00741016225705787
0.00737755067072358
0.0073524657066581
0.00733411294589778
0.00732150832335182
0.00731361658392845
0.00730942301750563
0.00730800120822164
0.00730853831795757
0.00731035726100354
0.00731291370754528
0.0073157926473136
0.00731869184983351
0.00732140753663977
0.00732381487238806
0.00732585058868747
0.00732749710710167
0.00732876978884756
0.00732970447242816
0.00733034855716939
0.00733075362978751
0.00733097074374576
0.00733104692225487
0.00733102339212444
0.00733093457127754
0.00733080803565762
0.0073306648279236
0.00733052021902353
0.00733038453238625
0.00733026411005241
0.00733016211438141
0.00733007940878804
0.00733001526677035
0.00732996794982796
0.00732993514531687
0.00732991431749524
0.00732990294699009
0.00732989870044998
0.00732989952504432
0.00732990369848833
0.00732990983590777
0.00732991687462418
0.00732992403987642
0.00732993080366755
0.00732993683988979
0.00732994197863772
0.00732994616648472
0.00732994943391682
0.00732995186519969
0.00732995357472378
0.00732995468907339
0.0073299553342845
0.00732995562733212
0.00732995567091672
0.00732995555130853
0.00732995533752883
0.00732995508246811
0.00732995482439377
0.00732995458920964
0.00732995439257128
0.00732995424216663
0.00732995413982959
0.00732995408341213
0.00732995406800615
0.00732995408729705
0.00732995413432592
0.00732995420223827
0.00732995428466703
0.0073299543760437
0.00732995447163477
0.00732995456767427
0.00632247760714253
0.00497080338807706
0.00403038485674854
0.00336795457046988
0.0029083037447957
0.00260981812747695
0.00245365491796143
0.0024356153335238
0.00256650630156279
0.00286150419824471
0.00333257493118717
0.00396502522218471
0.00471198458728991
0.00549731981259555
0.00624292999987661
0.00688758546289322
0.00740013692778016
0.00777480939585669
0.00802432066533989
0.00816991924787292
0.00823573027418972
0.00824416533616369
0.00821452389925877
0.00816204673995035
0.00809833848197502
0.00803163671328106
0.00796755949876819
0.00790956055191439
0.00785954155343354
0.00781818075892439
0.00778538126563709
0.00776050262899738
0.00774261025864043
0.00773060602650459
0.00772336999064692
0.00771982476018992
0.00771900306253154
0.00772006670419252
0.00772232713234186
0.00772523749765399
0.00772838748717942
0.00773148336737248
0.00773433244204838
0.00773682146565594
0.00773889848215183
0.00774055631447102
0.00774181947078018
0.00774273128261722
0.00774334513601289
0.00774371709192886
0.00774390143109039
0.00774394729189381
0.00774389717015978
0.00774378606533367
0.00774364166053574
0.00774348475998779
0.00774333019665675
0.00774318774053838
0.00774306314995198
0.00774295900625528
0.00774287565529744
0.00774281192028804
0.00774276569027252
0.00774273435482323
0.00774271515310294
0.00774270540312861
0.00774270266324542
0.00774270481527919
0.00774271010564882
0.00774271714257573
0.00774272487377901
0.00774273254550696
0.0077427396566647
0.0077427459101288
0.00774275116395113
0.0077427553907446
0.00774275864380858
0.00774276102636532
0.00774276266787185
0.00774276370633268
0.00774276427600566
0.00774276449933783
0.00774276448229257
0.00774276431272027
0.00774276405992857
0.00774276377627545
0.00774276349892105
0.0077427632523889
0.00774276305081821
0.00774276290043874
0.00774276280175859
0.00774276275147208
0.00774276274369337
0.00774276277131535
0.00774276282679579
0.00774276290284606
0.00774276299281458
0.00774276309096199
0.00774276319247992
0.00774276329359942
0.00632771850974837
0.00498304066475208
0.00405090103829025
0.00339882465295888
0.00295379394661524
0.00267631516717094
0.00255115615586236
0.00257795697294052
0.00277240172304488
0.00315096996911274
0.00372113007012682
0.0044543552164477
0.00528769115383195
0.00613319946891849
0.00691060705778838
0.00756331288816169
0.00806797215870361
0.00842579429299148
0.00865485015424209
0.00877966881903172
0.0088263105366461
0.00881804969567217
0.00877451849165356
0.00871089562972249
0.00863858037748681
0.00856548748261968
0.00849690407853437
0.00843593686426276
0.00838417303706004
0.00834199423219178
0.00830905721797126
0.00828450703852429
0.00826723800683275
0.0082560134781203
0.00824961167353027
0.0082468805089862
0.00824680492144303
0.00824851775529926
0.00825131834960377
0.00825465838519002
0.00825813464350728
0.00826146481278068
0.00826447053039119
0.00826705320804583
0.00826917508536841
0.00827084191862358
0.00827208947534349
0.0082729702273924
0.00827354481204609
0.00827387465636841
0.00827401787336559
0.00827402606987514
0.00827394318538641
0.00827380483287692
0.0082736387454021
0.00827346536892419
0.00827329895004565
0.0082731485441591
0.00827301916817802
0.00827291267689499
0.00827282877647184
0.00827276573631845
0.0082727209906911
0.00827269156819624
0.00827267443757026
0.00827266672347643
0.00827266585749821
0.00827266964687894
0.00827267630455531
0.00827268443435857
0.00827269300005396
0.0082727012761518
0.00827270879638833
0.00827271530035812
0.0082727206811377
0.00827272494377262
0.0082727281696608
0.00827273048517623
0.0082727320380337
0.00827273297995355
0.00827273345496076
0.00827273359190097
0.00827273350045581
0.00827273327015745
0.00827273297045708
0.00827273265288999
0.00827273235312873
0.00827273209391014
0.00827273188744157
0.0082727317381371
0.00827273164485748
0.0082727316028745
0.00827273160509959
0.00827273164347077
0.00827273170973724
0.00827273179609626
0.00827273189556429
0.00827273200220865
0.00827273211113858
0.00827273221859428
0.00633490392644645
0.00499918892981271
0.00407754961679907
0.00343870491628392
0.00301259190270541
0.00276257701473645
0.00267826881688502
0.00276425182801951
0.00304182616074204
0.00352707918592381
0.00421886014140926
0.00506976577059487
0.0059986631204162
0.00690686687614139
0.00771455337745491
0.00837192141020462
0.00886475705605124
0.00920183912441995
0.00940687827807071
0.0095077794738356
0.00953259018092711
0.00950544038134461
0.00944627911066492
0.00937017858737176
0.00928828737232693
0.00920813974565337
0.00913463879517544
0.00907048906070024
0.0090169142652981
0.00897395582398772
0.00894098936117571
0.00891691545989036
0.00890043504050704
0.00889015584630059
0.00888474314988747
0.00888296294997793
0.00888374906435119
0.00888620433753193
0.00888961703384986
0.00889343937138479
0.00889727801927389
0.00890086500610533
0.00890403927204883
0.00890671948342318
0.00890888446804782
0.00891055490238184
0.00891177940325072
0.00891262076288024
0.0089131477360928
0.00891342768383991
0.00891352290386584
0.00891348763763491
0.00891336731231522
0.00891319810269002
0.00891300768778478
0.00891281601685939
0.00891263660318647
0.00891247764122201
0.00891234327036937
0.0089122345015006
0.00891215030617889
0.00891208832214288
0.00891204546951995
0.00891201837246472
0.00891200370007585
0.00891199836555418
0.00891199966468945
0.00891200532753243
0.0089120135356457
0.00891202289342487
0.00891203238735287
0.00891204132745848
0.00891204928956327
0.00891205605657111
0.00891206156241848
0.00891206584963687
0.00891206903171347
0.00891207126120093
0.00891207270626443
0.00891207353381746
0.00891207389855459
0.00891207393616908
0.00891207376018129
0.00891207346168719
0.00891207311001851
0.00891207275554417
0.00891207243206922
0.00891207216017035
0.00891207194976784
0.00891207180316824
0.00891207171733188
0.00891207168590647
0.00891207170043636
0.00891207175179428
0.00891207183093653
0.00891207192950085
0.00891207204014781
0.00891207215674624
0.00891207227432678
0.00891207238915852
0.00634440052690537
0.00501984821861032
0.00411113359428203
0.00348874622110996
0.00308650058017592
0.00287153471108037
0.00283975756684673
0.00300177325116426
0.00338456464195983
0.00400044564062321
0.00483403133497969
0.0058143151361993
0.00684190900502442
0.00781033228401742
0.00864363405032276
0.00930084099333999
0.00977769185080364
0.0100906226426777
0.0102689005065137
0.0103436692130352
0.010344884654246
0.0102974613672955
0.0102216239350338
0.010132289544885
0.0100403169677178
0.00995281350921427
0.00987425797495
0.00980691078678506
0.00975159544954282
0.0097079824002901
0.00967514195952631
0.00965170989162851
0.00963617979987494
0.00962699378166467
0.00962269880139682
0.00962197620397541
0.00962370868971635
0.00962697037645134
0.00963104094525739
0.00963537593279082
0.00963959494623341
0.00964344716157858
0.00964679143881719
0.0096495657807433
0.00965176749254549
0.00965343359720078
0.00965462663218828
0.00965542043510022
0.00965589236302329
0.00965611597229952
0.00965615786296921
0.00965607490627871
0.0096559139445214
0.00965571159045139
0.0096554953277014
0.00965528445880037
0.00965509162326061
0.00965492402649613
0.00965478481789606
0.00965467407673864
0.00965458997211064
0.00965452945747372
0.0096544889018764
0.00965446450044109
0.00965445260868819
0.00965444992203298
0.0096544536000854
0.00965446129903405
0.00965447117489497
0.00965448183955824
0.00965449230956771
0.00965450193747175
0.00965451034758107
0.00965451737144329
0.00965452298842847
0.00965452728223086
0.00965453040112785
0.00965453252573973
0.0096545338459138
0.00965453454446067
0.00965453478704766
0.00965453471622676
0.0096545344491779
0.00965453407825259
0.00965453367230285
0.0096545332801526
0.00965453293337262
0.00965453265004755
0.00965453243752112
0.00965453229577008
0.00965453221966813
0.00965453220110131
0.00965453223014098
0.00965453229653314
0.00965453239039775
0.00965453250279813
0.00965453262603693
0.0096545327537948
0.00965453288103736
0.00965453300408921
0.00635665684362906
0.0050457284184794
0.00415262974272691
0.00355039586730596
0.00317784778571565
0.00300701925674739
0.00304182525383711
0.00329972693408276
0.00381227296036234
0.00458251401635792
0.00557422736385071
0.00668948923262873
0.00781303345796766
0.00883500803302537
0.00968698929928763
0.0103384128770917
0.0107952477855926
0.0110812488237541
0.0112308699682434
0.0112781848766506
0.011254884547435
0.0111865518381546
0.0110936289779182
0.0109908287310904
0.0108886882219148
0.0107938521760709
0.0107103472836502
0.0106399604455171
0.0105830899595888
0.0105390169331268
0.0105064922454812
0.0104838755703425
0.010469447165191
0.0104614800099325
0.0104584026781739
0.0104588131507348
0.0104615459333767
0.0104656496401141
0.010470399025118
0.0104752562653997
0.0104798570435466
0.0104839702592513
0.0104874768841359
0.0104903357867167
0.0104925641300818
0.0104942161482439
0.0104953688710314
0.0104961074773372
0.0104965180585635
0.0104966803499456
0.0104966651627471
0.0104965318449224
0.0104963284839233
0.0104960919497424
0.010495849363531
0.0104956192278773
0.0104954131803508
0.0104952373308852
0.0104950937517658
0.0104949815334464
0.0104948980009014
0.0104948393949606
0.0104948015177679
0.0104947801283495
0.0104947712686025
0.0104947714203398
0.0104947776141272
0.0104947874406154
0.0104947990390625
0.0104948110371746
0.0104948224891437
0.0104948327964933
0.0104948416373945
0.0104948488960221
0.0104948546004782
0.0104948588779181
0.0104948619128644
0.0104948639148163
0.0104948650956462
0.010494865654061
0.0104948657664706
0.0104948655819161
0.0104948652208063
0.0104948647762886
0.0104948643163071
0.0104948638877487
0.0104948635196112
0.0104948632272054
0.0104948630150817
0.0104948628807332
0.010494862816828
0.0104948628134138
0.0104948628590387
0.0104948629423056
0.0104948630524912
0.010494863180098
0.0104948633170869
0.0104948634569739
0.0104948635946817
0.0104948637266213
0.00637219735957651
0.00507764096487168
0.00420318354501678
0.00362540874684508
0.00328953208902974
0.00317385892208976
0.00329222566987875
0.00366918180552946
0.0043379008936059
0.00528445405017145
0.00644524074355593
0.00769459563999791
0.00890615360718292
0.00997189327477978
0.0108342644437614
0.0114740617439837
0.0119072572204403
0.0121642612593266
0.0122841498358877
0.0123035055410488
0.0122555207238361
0.0121663015002082
0.0120564402191028
0.0119403968606628
0.0118283621753635
0.0117264925849109
0.0116383461415549
0.0115652182476439
0.0115070678997619
0.0114627800537674
0.0114307810883079
0.0114091516222748
0.0113959596983202
0.0113893115478056
0.0113875218886968
0.0113891100510894
0.0113928676777164
0.0113978226229608
0.0114032492036391
0.0114086198506061
0.0114135893775312
0.0114179486469508
0.0114216024543875
0.0114245314985988
0.0114267736852984
0.0114284007832819
0.0114295044256321
0.0114301810414056
0.0114305252773949
0.0114306227913172
0.0114305483393814
0.0114303634726538
0.0114301172785746
0.0114298466635809
0.0114295782057527
0.0114293294595333
0.0114291109496329
0.0114289276081666
0.0114287803694691
0.0114286673078266
0.0114285848869194
0.0114285286289542
0.0114284937724377
0.011428475648726
0.0114284699980757
0.0114284731017465
0.0114284818745364
0.0114284938537711
0.0114285071728525
0.0114285204844012
0.011428532887664
0.0114285438387954
0.0114285530740276
0.0114285605327621
0.0114285662938868
0.011428570528993
0.011428573459147
0.011428575322566
0.0114285763527014
0.0114285767635469
0.0114285767415745
0.0114285764416368
0.0114285759867397
0.0114285754702656
0.0114285749587807
0.0114285744968529
0.011428574110608
0.0114285738123606
0.0114285736037235
0.0114285734796208
0.011428573430458
0.0114285734444258
0.0114285735085481
0.0114285736103085
0.0114285737381655
0.0114285738820979
0.011428574033756
0.0114285741865262
0.0114285743353153
0.0114285744766549
0.00639162005128741
0.00511649597651698
0.00426411581531995
0.00371587911418646
0.00342510348595985
0.00337802121826668
0.00360038869112095
0.00412289953394222
0.00497494639096435
0.00611610738917755
0.00745038075129914
0.00882670697393589
0.0101142443362342
0.0112120072191919
0.0120759633532379
0.0126985334030298
0.0131050543966264
0.0133317142671139
0.013421535925548
0.0134131305579209
0.0133409268621025
0.0132313938045652
0.0131052020392282
0.0129765123127336
0.0128551506489436
0.0127467678156207
0.0126544465234017
0.0125789822972232
0.0125198915104167
0.0124756653947354
0.0124444089856521
0.0124239281869239
0.0124120861675306
0.0124068297259716
0.0124063680876878
0.012409149377341
0.0124139295484737
0.0124197215088404
0.0124258041266277
0.0124316637561014
0.0124369771695017
0.0124415590146402
0.012445339117124
0.0124483204219248
0.012450561999224
0.0124521529779409
0.012453199301013
0.0124538082242602
0.0124540825110022
0.0124541132896458
0.0124539788573756
0.0124537426041826
0.0124534543201755
0.0124531507040664
0.0124528576081927
0.0124525915026685
0.0124523617093444
0.0124521719253038
0.0124520219120025
0.0124519087281339
0.0124518279806564
0.0124517744868972
0.0124517429414248
0.012451728269351
0.0124517259311069
0.0124517320274522
0.012451743375343
0.012451757473723
0.0124517724623083
0.0124517870279241
0.0124518003217392
0.0124518118591984
0.0124518214375601
0.0124518290527019
0.0124518348351901
0.0124518390008079
0.0124518418064435
0.0124518435180326
0.0124518443894987
0.0124518446490153
0.0124518444920804
0.0124518440784465
0.0124518435329467
0.012451842948574
0.0124518423900375
0.0124518418992318
0.0124518414991626
0.0124518411989864
0.0124518409973086
0.0124518408864595
0.0124518408545832
0.0124518408880454
0.0124518409723874
0.0124518410940317
0.0124518412406689
0.0124518414018107
0.0124518415688395
0.0124518417350546
0.0124518418953779
0.0124518420464966
0.00641559543930398
0.00516330355378938
0.00433693909778754
0.00382429094343933
0.00358887556976601
0.00362678563372918
0.00397750956921126
0.00467499199420572
0.00573656099727803
0.00708511029049054
0.00859022073809063
0.0100809923580328
0.0114296715257932
0.0125468501810434
0.0134037536949843
0.0140040659358
0.0143815588719455
0.0145772058825989
0.0146372619698084
0.0146018691838224
0.0145064194936872
0.0143775795205698
0.0142360261875628
0.0140955768409923
0.013965679832128
0.0138514696659429
0.0137555552094422
0.0136782303976864
0.0136185790694993
0.013574704937339
0.0135444030852752
0.0135252151863818
0.0135148120101556
0.0135109921985718
0.0135118708274777
0.0135158342740971
0.0135216112495374
0.0135282061591368
0.0135349076023187
0.0135412193785023
0.0135468427043242
0.0135516173703693
0.0135554988756433
0.0135585124947242
0.0135607382948752
0.0135622822088961
0.0135632638600516
0.0135638006372832
0.0135640027771375
0.0135639662783746
0.0135637724757328
0.0135634861729049
0.0135631575351662
0.0135628228011517
0.0135625069224741
0.013562225166105
0.0135619855840593
0.0135617906058887
0.0135616388099848
0.0135615262646549
0.0135614477431904
0.0135613973884107
0.0135613693840645
0.01356135828072
0.0135613592883093
0.0135613683522502
0.0135613822127431
0.0135613983469151
0.0135614149134608
0.0135614306423931
0.0135614447428409
0.0135614567930916
0.0135614666531547
0.0135614743753863
0.0135614801418769
0.0135614842112862
0.0135614868747474
0.01356148842423
0.0135614891325009
0.0135614892404255
0.0135614889512336
0.013561488428509
0.013561487798054
0.0135614871518326
0.0135614865522275
0.0135614860381499
0.0135614856292929
0.0135614853315561
0.0135614851405352
0.0135614850459972
0.0135614850338754
0.0135614850887856
0.0135614851948639
0.0135614853375559
0.0135614855038555
0.0135614856828765
0.0135614858657853
0.0135614860458416
0.0135614862180142
0.0135614863791806
0.00644486663819943
0.00521917887186705
0.00442338338365901
0.00395358694144194
0.00378606776968889
0.00392893022010321
0.00443654787359855
0.00534036709979427
0.00663459981693214
0.00819631415665705
0.00986274213132566
0.0114512684279097
0.0128447464121365
0.0139687813080498
0.0148106611135219
0.0153844577628743
0.015731274958776
0.0158958472875056
0.0159269599600143
0.0158658013034967
0.0157484624654377
0.015601645587655
0.0154459647180872
0.0152948521212555
0.0151573700691179
0.015038131445561
0.0149392794499122
0.014860611383154
0.0148007960759103
0.0147575625681495
0.0147284129630914
0.0147106400530342
0.014701738702036
0.0146993736352148
0.0147015792634237
0.0147066909951869
0.0147134194878944
0.0147207673262833
0.0147280379484394
0.0147347558103872
0.0147406486399222
0.0147455822444082
0.0147495379075645
0.014752563029107
0.0147547579823401
0.0147562446378196
0.0147571554034197
0.0147576169007778
0.0147577460471581
0.014757643008192
0.0147573915894178
0.0147570575490975
0.0147566910894861
0.0147563277414819
0.0147559913963778
0.0147556960201543
0.014755448351713
0.0147552495383068
0.0147550970042495
0.0147549858568922
0.0147549100793329
0.0147548631836049
0.0147548388860669
0.014754831402001
0.0147548357254215
0.0147548476748586
0.0147548639366377
0.0147548819832685
0.0147549000049204
0.0147549167830647
0.0147549315898143
0.0147549440686908
0.0147549541429995
0.0147549619204731
0.0147549676336682
0.0147549715819022
0.0147549740882973
0.0147549754686472
0.0147549760125488
0.0147549759718067
0.0147549755559208
0.0147549749311492
0.0147549742233721
0.0147549735228952
0.0147549728893415
0.014754972358381
0.0147549719462612
0.0147549716555851
0.014754971478998
0.014754971403779
0.0147549714137437
0.0147549714918681
0.0147549716209873
0.0147549717856745
0.0147549719723117
0.0147549721696943
0.0147549723688286
0.0147549725629842
0.0147549727472091
0.0147549729186039
0.00648025025163373
0.00528535110558476
0.0045254314658544
0.00410725738200476
0.00402297573575355
0.00429490759322226
0.0049920784071117
0.00613397166903086
0.0076787549465105
0.00945157208195173
0.0112637745945202
0.0129306229319477
0.014352205169714
0.0154712756044851
0.0162911497804775
0.0168350434900655
0.017150219313508
0.0172841767423854
0.0172875779558881
0.0172022061573918
0.017064608101738
0.0169013678446216
0.0167329726617339
0.0165724307378298
0.0164284137751764
0.016305011716816
0.016203915641134
0.0161244364601532
0.0160648516601296
0.0160225334598404
0.0159947123919242
0.015978451370644
0.01597108879977
0.0159701717478651
0.0159736688118659
0.0159798759064862
0.0159874951015689
0.0159955337485867
0.0160033149491012
0.016010386598359
0.0160165045395997
0.0160215609935582
0.0160255627050987
0.0160285786158161
0.0160307284017823
0.0160321487255683
0.0160329836849255
0.0160333680872995
0.016033424640262
0.0160332569108821
0.0160329505774324
0.0160325718830879
0.0160321707344649
0.0160317817219319
0.0160314275378098
0.0160311207721734
0.0160308668307231
0.0160306655851047
0.0160305133535632
0.0160304043289544
0.0160303317594272
0.0160302885798311
0.0160302680899058
0.0160302642139284
0.0160302717677738
0.0160302864732306
0.0160303049862371
0.0160303247916885
0.0160303441230325
0.0160303618204659
0.016030377222977
0.0160303900405724
0.0160304002591957
0.0160304080402672
0.0160304136646495
0.016030417469487
0.0160304198071324
0.0160304210146189
0.0160304213961062
0.0160304212124227
0.016030420677793
0.0160304199599626
0.0160304191840061
0.0160304184379814
0.0160304177783677
0.0160304172373942
0.016030416827788
0.0160304165488716
0.0160304163904515
0.0160304163374312
0.0160304163716354
0.0160304164745359
0.0160304166277921
0.0160304168152218
0.0160304170226894
0.0160304172387559
0.0160304174543257
0.0160304176627279
0.0160304178591201
0.0160304180408561
0.00652263816898351
0.00536317645862194
0.00464536479491868
0.00428945050268327
0.00430716552296033
0.00473697570783712
0.00565994476941131
0.00706989916088855
0.00887591287072128
0.0108498841786262
0.0127876060674992
0.0145120047412175
0.0159455034369772
0.0170490643250678
0.0178411127807293
0.0183526051373572
0.0186358015780062
0.0187400377290792
0.0187172694116841
0.0186094678980418
0.0184534194464333
0.0182754484054756
0.0180958583476042
0.0179271972927874
0.0177777454400926
0.017651071606053
0.0175484326155279
0.0174686673909358
0.0174096906103248
0.0173685391350613
0.0173421966868088
0.017327517854359
0.0173217060071922
0.0173222079945837
0.0173269421387213
0.01733417649793
0.0173426139145485
0.0173512727361329
0.0173595001145487
0.0173668696608981
0.0173731664613111
0.0173783090935869
0.0173823290609505
0.0173853159521226
0.0173874074886828
0.017388753775435
0.0173895093692937
0.017389816124336
0.0173898015951773
0.017389571958299
0.01738921416219
0.0173887944737935
0.0173883621897738
0.0173879507495087
0.0173875815322022
0.0173872657006348
0.017387007329032
0.0173868050390149
0.0173866541068936
0.0173865478701164
0.0173864789060364
0.017386439632694
0.0173864229886508
0.0173864226542515
0.0173864333064375
0.0173864506007374
0.0173864711858305
0.0173864925751508
0.0173865130561429
0.0173865315337977
0.0173865474167038
0.0173865604815123
0.0173865707750118
0.0173865785104003
0.0173865840135284
0.0173865876561747
0.0173865898168171
0.0173865908509069
0.0173865910747574
0.0173865907562344
0.017386590112725
0.017386589312294
0.0173865884783715
0.0173865876962329
0.0173865870188902
0.0173865864749931
0.0173865860737293
0.0173865858112062
0.0173865856745461
0.0173865856464175
0.0173865857068065
0.0173865858358354
0.017386586014126
0.0173865862248654
0.017386586453499
0.0173865866884397
0.0173865869205469
0.0173865871432574
0.0173865873518659
0.0173865875440057
0.00657300045003259
0.0054541557281031
0.00478582113715982
0.00450510631753434
0.00464768264236926
0.00526923849158534
0.00645669234519346
0.0081604818718352
0.0102298331115669
0.0123878294497653
0.0144276437046936
0.0161887182918397
0.0176192044173402
0.0186981841397875
0.0194578018030511
0.0199352469201215
0.0201866823174713
0.0202624411199097
0.0202152695879879
0.0200869697181061
0.0199143820271388
0.0197234433696212
0.0195342248199371
0.0193587812962136
0.0192050039720949
0.019075944853295
0.0189724478912969
0.0188928976730854
0.0188348783274108
0.0187951152567972
0.0187703725082682
0.0187573194813268
0.0187530470762013
0.0187549198161487
0.0187608214104044
0.0187690034274718
0.0187781784368353
0.0187873814576538
0.0187959875365428
0.0188035977299782
0.0188100270261806
0.0188152198877304
0.0188192315562762
0.0188221711227301
0.0188241929025359
0.0188254589550462
0.0188261329853532
0.0188263627090363
0.0188262795693311
0.0188259915623797
0.018825586321303
0.0188251296988091
0.0188246700949386
0.0188242396149251
0.0188238582370674
0.0188235356685103
0.0188232746735793
0.0188230726656959
0.0188229239562925
0.0188228210954132
0.0188227560599365
0.0188227208155532
0.0188227079974681
0.0188227110900877
0.0188227246705979
0.0188227443580053
0.0188227668157473
0.0188227896006178
0.018822811063429
0.0188228301787309
0.0188228464262825
0.0188228596485379
0.0188228699505549
0.0188228775947071
0.0188228829481133
0.0188228864136043
0.0188228883924644
0.01882288925562
0.0188228893290831
0.0188228888857719
0.0188228881447134
0.0188228872731795
0.0188228863921861
0.0188228855837586
0.0188228848971868
0.01882288435746
0.0188228839702556
0.0188228837285882
0.0188228836170695
0.0188228836162994
0.0188228837045963
0.018822883860899
0.0188228840649374
0.0188228842993959
0.0188228845494
0.018822884803299
0.0188228850519624
0.0188228852889791
0.0188228855098061
0.0188228857123789
0.00663238955896271