/*--------------------------------*- C++ -*----------------------------------*\
| =========                 |                                                 |
| \\      /  F ield         | OpenFOAM: The Open Source CFD Toolbox           |
|  \\    /   O peration     | Version:  2.3.x                                 |
|   \\  /    A nd           | Web:      www.OpenFOAM.org                      |
|    \\/     M anipulation  |                                                 |
\*---------------------------------------------------------------------------*/
FoamFile
{
    version     2.0;
    format      ascii;
    class       volScalarField;
    location    "20000";
    object      k;
}
// * * * * * * * * * * * * * * * * * * * * * * * * * * * * * * * * * * * * * //

dimensions      [0 2 -2 0 0 0 0];

internalField   nonuniform List<scalar> 
10000
(
0.00319665810588171
0.00276030658296049
0.00240622972575695
0.00211976186435718
0.00189178920319276
0.00171684286137382
0.00159180719007631
0.00151608719613573
0.00149189249149402
0.0015229733276655
0.00161286258035565
0.00175982732062294
0.00195355822859722
0.00217433171618499
0.00239866997802184
0.00260563983197663
0.00278172524590241
0.00292112087962586
0.00302418612227141
0.0030948803260373
0.00313887971431357
0.00316213234482279
0.00317016620545057
0.00316768372924456
0.00315850105125025
0.00314555341977495
0.00313101889285106
0.00311642392046367
0.00310278131732026
0.00309069122108641
0.00308045282465441
0.00307214193739312
0.00306568416110129
0.00306090539829271
0.00305757809672755
0.00305545130183774
0.00305427622948729
0.00305382073810993
0.00305388032292105
0.00305428209044583
0.0030548866975792
0.0030555863983424
0.00305630239242861
0.00305698046874737
0.00305758675354978
0.00305810332866285
0.0030585244051314
0.00305885261946652
0.00305909613300116
0.00305926619199339
0.00305937537941902
0.00305943627972983
0.00305946064207541
0.00305945883266083
0.00305943959698926
0.00305940998456662
0.00305937543511455
0.00305933993013432
0.00305930620723736
0.00305927597371747
0.00305925013791388
0.00305922901154657
0.00305921248565495
0.00305920017374141
0.00305919153016161
0.00305918593839594
0.0030591827769836
0.00305918146287437
0.00305918147899044
0.00305918238744461
0.00305918383360552
0.00305918554275119
0.0030591873126517
0.00305918900345172
0.00305919052663404
0.00305919183420954
0.00305919290901688
0.00305919375564919
0.00305919439295248
0.00305919484799093
0.00305919515148466
0.00305919533448584
0.00305919542610585
0.00305919545219689
0.00305919543458932
0.00305919539094143
0.00305919533487904
0.00305919527638277
0.00305919522228896
0.00305919517684294
0.00305919514226372
0.0030591951192637
0.00305919510745221
0.00305919510573972
0.003059195112613
0.00305919512638618
0.00305919514536992
0.00305919516798367
0.00305919519281657
0.0030591952186791
0.00319618643919797
0.00275933421785833
0.00240503839171517
0.00211880621286714
0.00189155789101802
0.0017178886468191
0.00159479951130392
0.00152186514719678
0.00150152207301984
0.00153758858923944
0.00163336057479282
0.00178629003580442
0.00198501738172543
0.00220899405119576
0.00243461067534185
0.00264131629991725
0.0028161980965727
0.00295396136309376
0.0030553208372285
0.00312442899388258
0.00316705570381803
0.00318917440937054
0.00319630812223796
0.00319313537864359
0.00318344406144338
0.00317013846258417
0.00315536827003071
0.00314063331879884
0.00312692367278056
0.00311481933719417
0.00310460325249886
0.00309633774598739
0.0030899380415689
0.0030852220008964
0.0030819564359463
0.00307988652102598
0.0030787612479484
0.00307834737861842
0.0030784402675733
0.0030788674527014
0.00307949044914734
0.00308020254638571
0.00308092606929108
0.00308160788404015
0.00308221510413014
0.00308273066473165
0.0030831494917234
0.00308347478070507
0.00308371511732516
0.00308388204663069
0.0030839883507349
0.0030840467290909
0.0030840689845369
0.00308406548994159
0.00308404496725428
0.00308401442240947
0.00308397924216882
0.00308394335157876
0.00308390943399155
0.00308387914672988
0.00308385335544441
0.00308383233652248
0.00308381595308824
0.00308380379741206
0.00308379530871503
0.00308378986035402
0.00308378682488947
0.00308378561641835
0.0030837857173566
0.00308378669087879
0.00308378818442706
0.00308378992586899
0.00308379171574854
0.00308379341691263
0.0030837949433046
0.00308379624908067
0.0030837973188738
0.00308379815869869
0.00308379878847711
0.00308379923604219
0.00308379953262727
0.00308379970958856
0.00308379979618102
0.00308379981828417
0.00308379979767288
0.00308379975190159
0.00308379969446423
0.00308379963520143
0.00308379958081218
0.00308379953541631
0.00308379950112475
0.00308379947856057
0.00308379946726057
0.00308379946608048
0.00308379947346798
0.00308379948771131
0.00308379950710585
0.00308379953006438
0.00308379955517524
0.00308379958125359
0.00319519039202213
0.00275729919342106
0.00240258588690262
0.00211686323979279
0.00189117043759513
0.00172020935199406
0.0016012564544352
0.00153423430998156
0.00152205000517629
0.00156860527185508
0.00167659413741453
0.00184168779458399
0.00205037604352044
0.00228055639261442
0.00250848204673727
0.00271445339010644
0.00288678212089813
0.00302118427197947
0.00311906922567758
0.00318496376377461
0.00322481774904734
0.00324465101087324
0.00324997412396677
0.00324541598785874
0.00323470673067603
0.00322068754796546
0.00320545048359556
0.00319044127359321
0.00317660376160752
0.00316447716472195
0.00315431160297124
0.00314614216558301
0.00313986316318745
0.00313527630883804
0.00313213715306469
0.0031301831872672
0.00312915904822103
0.00312882941209292
0.00312898946327963
0.00312946770700088
0.003130127468545
0.00313086418720302
0.00313160250220836
0.00313229148030874
0.00313290024651375
0.00313341347158403
0.00313382752672276
0.00313414673314005
0.00313438052761238
0.00313454105116241
0.00313464148045679
0.00313469473967234
0.0031347127333702
0.00313470584198977
0.00313468273512208
0.00313465032686532
0.0031346138941705
0.00313457724600018
0.00313454295464838
0.00313451257570907
0.00313448688849716
0.00313446609797961
0.00313445001103221
0.00313443817730984
0.00313443000580871
0.0031344248498055
0.0031344220701422
0.00313442107548372
0.00313442134751243
0.00313442245178518
0.00313442404012287
0.00313442584576966
0.00313442767497486
0.00313442939611124
0.00313443092812807
0.00313443222955089
0.00313443328864156
0.00313443411427816
0.00313443472854142
0.00313443516079871
0.00313443544330283
0.0031344356080036
0.00313443568442989
0.0031344356985014
0.00313443567186799
0.00313443562186521
0.0031344355617134
0.00313443550096421
0.00313443544603589
0.00313443540079232
0.00313443536712675
0.00313443534547989
0.00313443533524415
0.00313443533516278
0.00313443534360794
0.00313443535881503
0.00313443537904975
0.0031344354027113
0.00313443542838896
0.00313443545490654
0.00319374227875369
0.00275436446577286
0.00239911195912396
0.00211419456734764
0.00189084484464315
0.00172392039487354
0.001611130509847
0.00155291063594545
0.00155281917181351
0.00161472710355293
0.00174020025249433
0.00192216818171196
0.0021441593321871
0.00238221487852272
0.00261269539770947
0.0028172189848015
0.00298578266899253
0.00311543814212747
0.0032084970440792
0.00326996455818582
0.00330601772291613
0.00332272928532405
0.00332558759099809
0.00331915048295518
0.00330706732957745
0.00329209155701931
0.00327623536425759
0.00326086956015827
0.00324687405380705
0.00323473185682317
0.0032246480311517
0.0032166203176434
0.00321051448902106
0.00320611034316964
0.00320314828657364
0.00320135559582526
0.00320047125929642
0.00320025739062895
0.00320050920440008
0.00320105675026569
0.00320176600991381
0.00320253550082527
0.00320329312878282
0.0032039910339146
0.00320460113751984
0.00320511051010644
0.00320551750637382
0.00320582798175849
0.00320605252582657
0.00320620407922941
0.00320629634180654
0.00320634252852187
0.0032063546680127
0.00320634313771163
0.00320631652455788
0.00320628160809525
0.00320624350831805
0.00320620587044325
0.00320617111134083
0.00320614064547025
0.00320611513329111
0.00320609468177806
0.00320607902106506
0.0032060676430432
0.00320605991608885
0.00320605516681156
0.00320605274082459
0.00320605204010612
0.00320605254599263
0.00320605382785231
0.00320605554394242
0.00320605743520423
0.00320605931594261
0.00320606106225411
0.0032060626000403
0.0032060638938761
0.00320606493700578
0.00320606574221462
0.0032060663345085
0.00320606674531662
0.00320606700824496
0.00320606715601471
0.00320606721849102
0.00320606722161491
0.00320606718683681
0.0032060671311704
0.00320606706744392
0.00320606700480122
0.00320606694926632
0.00320606690434937
0.00320606687164299
0.00320606685133779
0.00320606684262812
0.00320606684410517
0.00320606685403896
0.0032060668705948
0.0032060668920003
0.00320606691663804
0.00320606694309986
0.00320606697022303
0.00319185919579963
0.00275062053968596
0.00239477951915276
0.00211101862370369
0.00189083240504465
0.00172929948618195
0.00162473249190194
0.00157823872872292
0.00159413140156925
0.00167594303239673
0.00182335899530607
0.00202560596820622
0.00226277533265025
0.00250917986200164
0.00274175744700386
0.00294388937210238
0.00310757115150282
0.0032313638868192
0.00331857849889488
0.00337473869032524
0.00340626348072961
0.00341927300754526
0.00341922144805395
0.00341057742854537
0.00339689156505881
0.00338081064592306
0.00336425032648054
0.003348490858697
0.00333433501706135
0.00332219836028622
0.00331223208603158
0.00330438940877929
0.0032985023207103
0.00329432487261555
0.00329157991341224
0.00328998306690018
0.00328926711822349
0.00328919160890948
0.00328955221734292
0.00329018118516684
0.00329094794142459
0.00329175488106013
0.00329253395233797
0.00329324104813954
0.00329385148437245
0.00329435521940596
0.00329475297363723
0.00329505241589108
0.00329526548634706
0.00329540605025716
0.00329548840212369
0.00329552607550435
0.00329553122205971
0.0032955141940995
0.00329548346257488
0.00329544563280719
0.00329540562746682
0.00329536688928821
0.00329533164490977
0.00329530113806306
0.00329527588663832
0.00329525588073212
0.00329524075966757
0.00329522994759324
0.00329522276582174
0.00329521851058663
0.00329521651071655
0.00329521616145097
0.00329521694478124
0.00329521843549488
0.00329522030021673
0.0032952222895821
0.00329522422787005
0.00329522600061628
0.0032952275421562
0.00329522882435533
0.0032952298464047
0.00329523062571334
0.00329523119071758
0.00329523157523507
0.00329523181441247
0.00329523194182059
0.00329523198766333
0.00329523197785145
0.00329523193355398
0.00329523187136501
0.00329523180361897
0.00329523173895455
0.00329523168291258
0.00329523163857589
0.00329523160717536
0.00329523158860341
0.0032952315818187
0.00329523158523517
0.00329523159700333
0.00329523161520853
0.00329523163803744
0.00329523166385603
0.00329523169126142
0.00329523171910939
0.00318955356228103
0.00274614083089862
0.00238973776056155
0.0021075555452726
0.00189142142177682
0.00173672005770624
0.00164255804015664
0.00161085458712959
0.00164665804075853
0.00175258996160106
0.00192548015103115
0.00215001119836214
0.00240279840907262
0.00265695452658505
0.0028906029513101
0.00308925768649792
0.0032470729344954
0.00336415813295675
0.00344482716587885
0.00349510992747685
0.00352165609030012
0.00353061836973223
0.00352740364348742
0.00351637644960002
0.00350097534790668
0.00348372695710695
0.00346643873375928
0.0034502895105455
0.00343599589280954
0.00342389860301643
0.00341408931986244
0.00340647226624928
0.00340084262421543
0.00339692665668936
0.00339442860085704
0.00339305199459823
0.00339252353979811
0.00339260061623301
0.00339308000392969
0.00339379683700831
0.00339462472145699
0.00339547060034484
0.0033962710703159
0.00339698627227343
0.00339759534002263
0.00339809144096052
0.00339847789754039
0.00339876435085133
0.00339896419352139
0.00339909226801867
0.00339916348279312
0.00339919168315058
0.00339918912181968
0.00339916609390197
0.00339913091883783
0.00339908999141231
0.00339904800330798
0.00339900816462916
0.00339897248607511
0.00339894202037406
0.00339891712730595
0.00339889766836506
0.0033988831839664
0.00339887302532089
0.00339886646387215
0.00339886276440544
0.00339886123918178
0.00339886127772981
0.00339886236422901
0.00339886408063049
0.00339886610371415
0.00339886819548519
0.00339887019169933
0.00339887198858723
0.003398873529965
0.0033988747958129
0.00339887579186914
0.00339887654057975
0.00339887707407411
0.00339887742870091
0.00339887764120051
0.00339887774598212
0.00339887777353629
0.00339887774966439
0.00339887769516592
0.00339887762612447
0.00339887755429507
0.00339887748773482
0.00339887743143597
0.00339887738800306
0.00339887735826444
0.00339887734178426
0.00339887733726339
0.00339887734292604
0.00339887735679458
0.00339887737687222
0.00339887740130567
0.00339887742844716
0.00339887745690287
0.00339887748555293
0.00318683275319957
0.00274099065988164
0.0023841306848927
0.00210403187489376
0.00189293416071615
0.00174663692238658
0.00166525220747683
0.00165160370406665
0.00171126341036338
0.00184505041790984
0.00204582788886658
0.00229319390161988
0.00256073942688613
0.00282119993494019
0.00305451335506584
0.00324857274438821
0.00339970801691941
0.00350950765025511
0.00358322167332546
0.00362733538340924
0.00364869886482426
0.00365347628831348
0.003647013812604
0.00363356017816121
0.00361643281084047
0.00359802937591332
0.00358004197611864
0.00356354142899365
0.00354915290557726
0.00353713839976079
0.00352752724496406
0.00352017265100385
0.00351483194989871
0.00351120317163094
0.0035089720871212
0.00350783058717841
0.00350749998345694
0.00350773624685828
0.00350833804850633
0.0035091441343732
0.00351003293841866
0.00351091648808887
0.00351173646757755
0.00351245758652278
0.00351306305690933
0.00351354942154628
0.0035139227087914
0.003514194582959
0.00351437990588324
0.00351449448656599
0.00351455382176629
0.00351457203255901
0.00351456143389966
0.00351453222431984
0.00351449253569353
0.00351444852012858
0.00351440461158342
0.00351436376576206
0.00351432776038813
0.00351429744560989
0.00351427301500065
0.00351425419621987
0.00351424042803889
0.0035142309877831
0.00351422509741259
0.00351422199146719
0.00351422096735487
0.00351422141079833
0.00351422281009537
0.00351422475615611
0.00351422693751566
0.00351422912889195
0.00351423117861071
0.00351423299441708
0.0035142345302511
0.00351423577464558
0.00351423674015458
0.00351423745440161
0.00351423795325667
0.00351423827558043
0.00351423845964441
0.0035142385406092
0.00351423854915588
0.00351423851087648
0.00351423844611116
0.00351423837035092
0.00351423829470282
0.00351423822658627
0.00351423817040223
0.00351423812824689
0.0035142381005239
0.00351423808645545
0.00351423808447658
0.00351423809262001
0.00351423810878022
0.00351423813088141
0.00351423815703515
0.00351423818558497
0.00351423821515095
0.00351423824464339
0.00318370194912882
0.00273523222892401
0.00237810157704294
0.00210068350440999
0.00189572743315703
0.00175958308830167
0.00169359323213954
0.00170148272597322
0.00178886110502008
0.00195353050409917
0.00218331826514355
0.00245267342707512
0.00273306449565268
0.0029978079265671
0.00322919791450689
0.0034176082431596
0.00356144365099851
0.00366362631787026
0.00373022934635105
0.00376811817695803
0.00378430110789405
0.00378492897678263
0.00377527413315493
0.00375946059291807
0.00374067913080602
0.00372119366506986
0.00370257760923149
0.00368579081683827
0.00367136503863233
0.00365948265551722
0.00365011026097877
0.00364305013328815
0.00363802241472618
0.00363469780145011
0.0036327447371411
0.00363184460795136
0.00363171447347885
0.00363210989641896
0.00363283231717455
0.00363372479328785
0.00363467114150471
0.00363558887215909
0.00363642503681983
0.0036371490750049
0.00363774839039841
0.00363822293051195
0.00363858141892623
0.00363883750243129
0.00363900745777921
0.00363910799800542
0.00363915514669818
0.00363916324236634
0.00363914461129394
0.00363910931195152
0.00363906525389882
0.00363901831941274
0.00363897266500686
0.00363893097816703
0.00363889479461737
0.00363886475812307
0.00363884089445127
0.00363882279780305
0.00363880980713552
0.0036388011284949
0.00363879593736386
0.00363879344106224
0.0036387929250148
0.00363879377367762
0.0036387954816327
0.00363879765050077
0.00363879998194062
0.00363880226438554
0.00363880435943375
0.00363880618676515
0.0036388077107244
0.00363880892849165
0.00363880985941839
0.00363881053621368
0.00363881099835563
0.00363881128706493
0.00363881144198958
0.00363881149889595
0.00363881148852754
0.00363881143615531
0.00363881136157243
0.00363881127960688
0.0036388112006664
0.00363881113149606
0.00363881107588391
0.00363881103540612
0.00363881101003617
0.00363881099865457
0.00363881099943464
0.00363881101022488
0.00363881102879859
0.00363881105300966
0.00363881108094142
0.0036388111109355
0.00363881114163133
0.00363881117197523
0.00318016626319949
0.00272892778487347
0.00237179606167286
0.0020977586495448
0.00190019578292022
0.00177617162626847
0.00172848001678077
0.0017615767900735
0.00188027035595955
0.00207788924616688
0.00233643721716331
0.00262572261320558
0.00291630650799611
0.00318301478038023
0.00341088115155216
0.00359272315310044
0.00372883520744373
0.00382328326752153
0.00388282597327582
0.00391462132785367
0.00392578763466758
0.00392243608455921
0.00390975282557519
0.00389173048600732
0.00387143047566188
0.00385098133089508
0.00383183751291188
0.00381484792503293
0.0038004516455744
0.00378875300639767
0.00377965745661694
0.00377291814078413
0.00376822004090175
0.00376520847874321
0.00376353647305875
0.00376287656712661
0.00376294301475774
0.00376349212077875
0.00376432899937066
0.00376530166449057
0.00376629976141937
0.00376724654637631
0.0037680945716759
0.00376881802887922
0.00376940850004537
0.00376986925168023
0.00377021159857684
0.00377045105610849
0.00377060520634229
0.0037706915646568
0.00377072659393501
0.00377072477656357
0.00377069839213139
0.00377065731450068
0.00377060919913091
0.00377055963686162
0.00377051249386903
0.00377047018285177
0.00377043399562715
0.0037704043723548
0.00377038117478185
0.00377036386861052
0.00377035169846343
0.00377034380449072
0.00377033932069385
0.00377033743153154
0.00377033741410976
0.00377033865454064
0.00377034065593344
0.00377034303224122
0.00377034549935021
0.00377034786007961
0.00377034998964254
0.0037703518197244
0.00377035332504349
0.00377035451123392
0.00377035540419095
0.00377035604143167
0.00377035646576866
0.00377035672053024
0.00377035684651846
0.00377035687992029
0.00377035685139319
0.00377035678577268
0.00377035670222321
0.00377035661485278
0.00377035653333535
0.00377035646372298
0.00377035640918766
0.00377035637078974
0.00377035634808074
0.00377035633961163
0.00377035634330751
0.00377035635684681
0.00377035637789422
0.0037703564042447
0.00377035643396258
0.00377035646539533
0.00377035649720744
0.00377035652838638
0.00317623227330775
0.00272214171994753
0.00236536449011962
0.00209552123277715
0.00190677666008985
0.00179709964157102
0.00177091545499803
0.00183298190517517
0.00198607355395364
0.00221752962892206
0.00250325931562769
0.00280948454068487
0.00310719393432902
0.0033734920354499
0.00359635024735769
0.00377087949567823
0.00389902863165796
0.00398579916684476
0.00403849045654159
0.0040644625980587
0.00407089432827877
0.00406383100098087
0.00404836110107207
0.00402834095783366
0.00400670198626273
0.00398543806997274
0.00396588679919772
0.00394878839175722
0.00393449228601154
0.00392302809382445
0.00391424329295059
0.00390784501014084
0.00390348612492449
0.00390078931590844
0.00389939461160927
0.00389896771285993
0.00389922169083522
0.00389991480191931
0.0039008567103416
0.00390190094894124
0.00390294332218631
0.00390391296772254
0.00390476794299573
0.0039054870992446
0.00390606607842922
0.00390651128969977
0.00390683646401667
0.00390705881735576
0.0039071970880104
0.00390726946529182
0.00390729274725395
0.00390728147811398
0.00390724783011546
0.00390720144955877
0.00390714971024435
0.00390709789574067
0.00390704957535242
0.00390700688674172
0.00390697088197874
0.00390694180562195
0.00390691936340495
0.00390690290100121
0.00390689157689014
0.00390688447270044
0.00390688068731561
0.00390687938754908
0.0039068798463055
0.00390688145442918
0.00390688372573957
0.00390688628794532
0.00390688887198491
0.00390689129542123
0.00390689344710798
0.00390689527051721
0.00390689675045296
0.00390689790058161
0.00390689875290879
0.00390689934934368
0.00390689973565913
0.00390689995696919
0.00390690005496456
0.00390690006604454
0.00390690002062454
0.0039068999429935
0.00390689985161527
0.00390689975983523
0.00390689967657487
0.00390689960719048
0.00390689955425049
0.00390689951831607
0.00390689949853617
0.00390689949315326
0.00390689949986489
0.00390689951619868
0.0039068995397264
0.00390689956819837
0.00390689959966984
0.00390689963250241
0.00390689966539106
0.00390689969736911
0.00317190905172312
0.00271494195680333
0.00235896400062956
0.00209425480495733
0.00191595705778606
0.00182315173267281
0.00182197918411605
0.00191670939857314
0.00210648956261388
0.00237136230142302
0.0026815403448978
0.00300111208952205
0.00330275604474757
0.00356639320535183
0.0037829556179281
0.00394961766651745
0.00406972649591014
0.00414901204011316
0.00419517431089048
0.00421568873820348
0.00421774689889629
0.00420730345767147
0.0041893388830437
0.00416756963155999
0.00414479798059495
0.00412288557238176
0.0041030569074009
0.00408594731658172
0.00407182170988056
0.00406063920566461
0.00405219375135982
0.00404615050953902
0.00404213402048715
0.0040397475529626
0.00403862089985387
0.00403841509600513
0.00403884371514199
0.00403966815762506
0.00404070344304517
0.00404180908504726
0.00404288726355914
0.00404387301840813
0.00404472980265158
0.00404544096160102
0.00404600597957398
0.00404643417095497
0.00404674145817608
0.00404694655365561
0.00404706917794942
0.00404712805047069
0.00404714019212609
0.00404712012423866
0.00404707985216583
0.00404702875533778
0.00404697390337675
0.00404692026242166
0.00404687110404614
0.00404682829588145
0.00404679265940343
0.00404676425538669
0.00404674264466741
0.00404672706384541
0.00404671659527528
0.00404671027070413
0.00404670716106009
0.0040467064211617
0.00404670732398585
0.00404670926814663
0.00404671178018808
0.00404671450275518
0.00404671718238434
0.00404671965146006
0.00404672181223439
0.00404672361952003
0.00404672506771745
0.00404672617793466
0.00404672698772773
0.00404672754288917
0.0040467278917135
0.00404672808073826
0.00404672815225552
0.0040467281426614
0.00404672808197379
0.00404672799383448
0.00404672789594586
0.00404672780086251
0.0040467277167491
0.00404672764827688
0.00404672759743555
0.0040467275643133
0.00404672754768412
0.00404672754550938
0.00404672755528465
0.00404672757440889
0.00404672760037941
0.00404672763091657
0.00404672766407734
0.00404672769824546
0.0040467277321516
0.0040467277648785
0.00316720883776433
0.00270740086053799
0.00235276048734998
0.00209426709998175
0.00192828104289055
0.00185520001971477
0.00188278444370224
0.00201357713036619
0.0022412827533072
0.00253784143610108
0.00286885022223305
0.00319789546167582
0.0035003889066536
0.00375935800445265
0.00396857505779026
0.00412700212154325
0.00423912963429386
0.00431122249228509
0.00435125351527399
0.00436673450262898
0.00436482643384157
0.00435137060972652
0.00433123038930735
0.00430797983203091
0.00428429397622534
0.00426190577859761
0.00424193160067235
0.00422490689159095
0.00421101820055754
0.00420015933934709
0.00419207589694552
0.00418639571896607
0.00418271918951396
0.00418063366793512
0.00417976160410263
0.00417976158354481
0.0041803493369228
0.00418129052547629
0.00418240622873683
0.00418356229343112
0.00418466738308887
0.00418566236122384
0.00418651587694076
0.00418721554762257
0.00418776441093086
0.00418817440860676
0.00418846339902607
0.00418865136636678
0.00418875882715512
0.00418880488117129
0.00418880665857195
0.0041887785750199
0.00418873241339663
0.00418867725201014
0.00418861983920721
0.00418856481885994
0.00418851516881546
0.00418847249540438
0.00418843740393921
0.00418840978437187
0.00418838906632815
0.00418837438985597
0.00418836477225404
0.00418835920466781
0.00418835673755372
0.00418835651946937
0.00418835782765689
0.00418836007135149
0.0041883627915926
0.00418836564687577
0.00418836839961787
0.00418837089685966
0.00418837305379316
0.00418837483596039
0.00418837624671723
0.00418837731390987
0.00418837808000565
0.00418837859411795
0.00418837890659235
0.00418837906501125
0.00418837911197683
0.00418837908367051
0.00418837900956716
0.00418837891257262
0.00418837880958085
0.00418837871234081
0.00418837862826832
0.00418837856137146
0.00418837851309513
0.00418837848308747
0.00418837846978077
0.00418837847088675
0.00418837848372742
0.00418837850559698
0.00418837853393716
0.00418837856645388
0.00418837860121608
0.00418837863663731
0.00418837867148832
0.00418837870490432
0.00316214743988096
0.00269959585704036
0.00234693065672316
0.00209589527823832
0.00194435740677807
0.00189419731377347
0.00195441591774029
0.00212409986778113
0.00238972458469397
0.0027150583430944
0.00306271422662571
0.00339735899746383
0.00369788243722381
0.00395048522977712
0.00415155613163351
0.00430155194532555
0.00440586726035066
0.00447112918057641
0.00450547153386035
0.00451637344308426
0.00451092723697754
0.00449484087212424
0.00447285288713366
0.00444839329071111
0.00442401251596721
0.00440131913731678
0.00438132708530894
0.00436447773408858
0.00435088608479045
0.00434038640254292
0.00433268151273552
0.00432736689811015
0.00432402315166251
0.00432222529839551
0.00432159132990747
0.00432177953355897
0.00432250935118834
0.00432355170550136
0.00432473432219506
0.00432592962229437
0.00432705276309935
0.004328050270778
0.00432889572777669
0.00432958074830763
0.00433011159923671
0.00433050254529497
0.00433077311012311
0.00433094431731629
0.00433103729085618
0.00433107136274619
0.00433106366279755
0.00433102842362012
0.00433097715593676
0.00433091860855733
0.00433085919690013
0.00433080324252474
0.00433075343756548
0.00433071113916035
0.00433067675317828
0.00433065001366775
0.00433063023384753
0.00433061647051216
0.00433060768738428
0.00433060284442247
0.004330600979037
0.0043306012390738
0.00433060290997571
0.00433060541416224
0.00433060830864987
0.00433061126842862
0.00433061407183815
0.00433061658020853
0.00433061872103709
0.00433062046990109
0.0043306218383364
0.00433062286016781
0.0043306235820961
0.00433062405597206
0.00433062433371506
0.00433062446357643
0.00433062448818707
0.00433062444331531
0.00433062435776126
0.00433062425362216
0.00433062414694925
0.00433062404868362
0.00433062396551043
0.00433062390080524
0.00433062385550829
0.00433062382886479
0.00433062381900219
0.00433062382341592
0.00433062383928425
0.00433062386382047
0.00433062389443024
0.00433062392881928
0.00433062396507873
0.00433062400165847
0.00433062403737339
0.00433062407141288
0.00315674442938108
0.00269160989830606
0.00234166431580687
0.00209951185590445
0.00196486631657435
0.00194115962714536
0.00203784936266523
0.00224839654941174
0.00255061439489285
0.0029008691742751
0.00326073863039244
0.00359732184040963
0.00389341062236654
0.0041382868668179
0.00433064951905273
0.0044721677507368
0.00456892553595492
0.00462776308373036
0.0046568807605826
0.0046636665855068
0.00465511207448523
0.00463677480573361
0.00461326224811087
0.00458785947429927
0.00456299548390778
0.00454015924069117
0.00452026840180401
0.00450367656574927
0.0044904343082118
0.0044803223785466
0.0044730066054763
0.00446805514173667
0.00446503314870321
0.00446350681803682
0.00446309245026342
0.00446345004373829
0.00446430415831924
0.00446543183757008
0.00446666791388447
0.00446789151722377
0.00446902422332673
0.00447001799400303
0.00447085103833333
0.00447151865652742
0.00447203000154121
0.00447240134613125
0.004472653605919
0.00447280861389639
0.00447288791841244
0.0044729109426578
0.00447289471426404
0.00447285321305403
0.0044727976349876
0.00447273637720164
0.00447267551572803
0.00447261905392949
0.004472569409414
0.00447252770471653
0.00447249416435789
0.00447246838244157
0.0044724495710288
0.00447243671711459
0.00447242874223754
0.00447242458433567
0.00447242327486066
0.00447242396611858
0.0044724259553131
0.0044724286802598
0.0044724317151253
0.00447243475177683
0.00447243758431016
0.00447244008781465
0.00447244220132801
0.00447244390973335
0.00447244523187209
0.00447244620677417
0.00447244688468783
0.00447244731962247
0.00447244756460656
0.00447244766820179
0.00447244767280547
0.00447244761359337
0.00447244751857778
0.00447244740898901
0.00447244730001548
0.00447244720179866
0.00447244712031934
0.00447244705835811
0.00447244701639395
0.00447244699330882
0.00447244698696374
0.00447244699467173
0.004472447013497
0.00447244704059535
0.0044724470733546
0.00447244710949418
0.00447244714713631
0.00447244718477303
0.00447244722126635
0.00447244725586111
0.00315102317794544
0.00268353188781952
0.00233716701003517
0.00210553122450147
0.00199056337818557
0.0019971344199097
0.00213385924946817
0.00238613246504632
0.00272235321800617
0.00309303136490315
0.00346070739551202
0.00379592543842143
0.004085521452368
0.00432163390833743
0.00450494212198346
0.00463806223942422
0.00472758085369238
0.00478042605567382
0.00480478724456112
0.00480791329386033
0.00479666863712532
0.00477644643089603
0.00475171831493142
0.00472562424970182
0.00470047538826022
0.00467764613441484
0.00465796425623587
0.00464170214088643
0.00462885310739552
0.00461915046412911
0.00461222878756796
0.00460763383877582
0.00460491956120995
0.00460364663210643
0.00460343223391029
0.00460393989269521
0.00460490051754654
0.00460609797937744
0.00460737455277594
0.00460861611326212
0.00460975050764626
0.00461073485587059
0.00461155165965487
0.00461219957308766
0.00461269028644413
0.00461304176711771
0.00461327605630373
0.00461341557599357
0.00461348212665932
0.00461349509250246
0.00461347130731343
0.00461342443738114
0.00461336532890477
0.00461330201131733
0.00461324021956578
0.00461318364642555
0.00461313444856042
0.00461309353020579
0.00461306095322939
0.0046130361880837
0.0046130183608352
0.00461300640182287
0.00461299920134081
0.00461299568395095
0.00461299488170409