/*--------------------------------*- C++ -*----------------------------------*\
| =========                 |                                                 |
| \\      /  F ield         | OpenFOAM: The Open Source CFD Toolbox           |
|  \\    /   O peration     | Version:  2.3.x                                 |
|   \\  /    A nd           | Web:      www.OpenFOAM.org                      |
|    \\/     M anipulation  |                                                 |
\*---------------------------------------------------------------------------*/
FoamFile
{
    version     2.0;
    format      ascii;
    class       volScalarField;
    location    "20000";
    object      nut;
}
// * * * * * * * * * * * * * * * * * * * * * * * * * * * * * * * * * * * * * //

dimensions      [0 2 -1 0 0 0 0];

internalField   nonuniform List<scalar> 
10000
(
0.000145154583496295
0.000137960357562118
0.000129744999484301
0.000121161264797545
0.000112755502412828
0.00010492907558952
9.7927339570026e-05
9.19953656414305e-05
8.7425933863372e-05
8.45985513723021e-05
8.38620190601778e-05
8.53464797044981e-05
8.88027032649383e-05
9.36253553246981e-05
9.90654620601767e-05
0.0001044539998848
0.000109330594249969
0.000113449619179073
0.000116736780170388
0.000119225469926055
0.000121009172805844
0.000122204917347933
0.00012293333103045
0.000123305804718832
0.000123419646881302
0.000123355619585527
0.000123178614364924
0.000122938649686919
0.000122672920414662
0.000122407830493098
0.000122161063940817
0.000121943224728514
0.000121759535566603
0.000121611211472733
0.000121496720272884
0.000121412746129109
0.000121355008404323
0.000121318842426145
0.000121299650062686
0.000121293177938227
0.000121295701295874
0.000121304098383644
0.00012131587004229
0.000121329099329963
0.000121342402666268
0.000121354848528809
0.000121365871650474
0.000121375188897833
0.000121382727016175
0.000121388557650092
0.000121392845590013
0.000121395806305575
0.000121397675038232
0.000121398683891933
0.000121399047312736
0.000121398953056613
0.0001213985583255
0.000121397988927605
0.000121397340957859
0.000121396684295979
0.000121396066648851
0.000121395517389372
0.000121395051572823
0.000121394673589579
0.000121394380394332
0.000121394164147899
0.000121394014340595
0.000121393919380456
0.000121393867747316
0.000121393848749652
0.000121393852985973
0.000121393872558658
0.000121393901119087
0.000121393933781491
0.000121393966988663
0.000121393998327785
0.000121394026312288
0.000121394050174316
0.000121394069681497
0.000121394084975511
0.000121394096440603
0.000121394104596343
0.000121394110018072
0.000121394113279292
0.000121394114912438
0.000121394115385831
0.000121394115092906
0.000121394114348707
0.000121394113395596
0.00012139411240993
0.000121394111512194
0.000121394110775676
0.000121394110237875
0.000121394109908261
0.000121394109778096
0.000121394109825425
0.000121394110022324
0.000121394110337494
0.000121394110740404
0.000121394111202404
0.000145102326458404
0.000137791736237969
0.000129469571297442
0.000120796914702805
0.000112318267023599
0.000104429452411277
9.73718570577056e-05
9.13968349618761e-05
8.68096554209567e-05
8.40059514285964e-05
8.33367527575292e-05
8.49140012142516e-05
8.84568855357121e-05
9.33368421796019e-05
9.88001950527525e-05
0.000104186060187153
0.000109045220543717
0.000113140702106686
0.000116403551635465
0.000118869837405124
0.000120634183053248
0.000121813870983623
0.000122529389201508
0.000122891790450463
0.000122997997039757
0.00012292837455259
0.000122747449833423
0.000122504906687708
0.00012223764508271
0.000121971823836948
0.000121724913655646
0.000121507335830404
0.000121324163698637
0.000121176494761906
0.00012106270804682
0.000120979424183078
0.000120922320312092
0.000120886706957052
0.000120867974699367
0.000120861868875699
0.000120864670290099
0.000120873267002933
0.000120885171798032
0.000120898480166471
0.000120911821148886
0.000120924274435066
0.000120935284185834
0.000120944574968802
0.000120952079619035
0.000120957874342629
0.000120962127175805
0.000120965055707002
0.000120966896409043
0.000120967881924985
0.000120968226747514
0.000120968118337986
0.00012096771339977
0.000120967137133188
0.000120966484990386
0.000120965826259961
0.000120965208107718
0.000120964659425916
0.000120964194872182
0.000120963818523585
0.000120963527099823
0.000120963312594927
0.000120963164389858
0.000120963070828668
0.000120963020362252
0.000120963002295518
0.000120963007240772
0.000120963027324602
0.000120963056228246
0.000120963089096822
0.000120963122404205
0.000120963153765929
0.000120963181719184
0.000120963205515567
0.000120963224938206
0.000120963240140453
0.000120963251514879
0.000120963259586622
0.000120963264934329
0.000120963268133012
0.00012096326971538
0.000120963270149083
0.000120963269826385
0.000120963269060895
0.000120963268093407
0.000120963267098859
0.000120963266196301
0.000120963265457909
0.000120963264920038
0.000120963264591534
0.000120963264462889
0.000120963264511827
0.000120963264710116
0.000120963265026351
0.000120963265429844
0.000120963265891946
0.000144965020383172
0.000137429048013434
0.000128885483507809
0.000120029167929315
0.000111400094496628
0.000103383561333967
9.62147049080185e-05
9.01608116492568e-05
8.55556283798668e-05
8.28260392839122e-05
8.23202173371621e-05
8.41030633351495e-05
8.78260532881665e-05
9.28168957538161e-05
9.83180838863627e-05
0.000103688783463034
0.000108503953787856
0.000112544595853464
0.00011575252414613
0.000118169047877739
0.000119890876140794
0.000121035608165985
0.000121723271738718
0.000122064090043945
0.000122154080123592
0.000122072704604324
0.000121883667277629
0.00012163590515676
0.000121365666374771
0.000121098566148821
0.000120851603972304
0.000120634803465228
0.00012045291653125
0.000120306789876334
0.000120194615666661
0.000120112882785719
0.000120057183160297
0.000120022779346239
0.000120005042783363
0.000119999720446886
0.000120003108862557
0.000120012120135546
0.000120024295012248
0.000120037757465781
0.000120051164699782
0.000120063620946158
0.000120074590952882
0.000120083815948738
0.000120091241780284
0.000120096954269562
0.000120101128171478
0.000120103985349742
0.0001201057646452
0.000120106699604783
0.000120107004596582
0.00012010686626222
0.000120106440083459
0.000120105849840353
0.000120105189526792
0.000120104527104443
0.000120103908530584
0.000120103361648035
0.000120102900257085
0.000120102527766976
0.000120102240403256
0.000120102029815003
0.000120101885162217
0.000120101794665498
0.00012010174672652
0.000120101730653667
0.000120101737098126
0.000120101758246199
0.000120101787848747
0.000120101821121737
0.000120101854608781
0.000120101885987398
0.000120101913846662
0.000120101937480294
0.00012010195670458
0.000120101971697459
0.00012010198286892
0.000120101990755267
0.000120101995941573
0.000120101999005476
0.000120102000479648
0.000120102000829879
0.000120102000445553
0.000120101999636821
0.000120101998641017
0.000120101997629718
0.00012010199671894
0.000120101995978235
0.000120101995441749
0.000120101995116697
0.000120101994992264
0.000120101995045338
0.000120101995247097
0.000120101995565838
0.000120101995970752
0.000120101996433169
0.000144750676535764
0.000136890370816228
0.000128028703002736
0.000118910384289955
0.000110067498056356
0.000101871883993557
9.45546820052698e-05
8.84126627026522e-05
8.38246452341867e-05
8.12551092561113e-05
8.10297685500449e-05
8.31284965472809e-05
8.71051499412689e-05
9.22363286717464e-05
9.77705605845094e-05
0.000103101046589616
0.000107838594901806
0.000111789564670394
0.000114910501611179
0.000117249615514176
0.000118906120302023
0.000119997693344373
0.000120643404580079
0.000120952051003705
0.000121018160155943
0.00012091974420359
0.000120719198988735
0.000120464286150951
0.00012019023872487
0.00011992182311704
0.00011967531004875
0.000119460116940134
0.000119280512923242
0.0001191369725649
0.000119027416194202
0.000118948145266575
0.000118894635415671
0.000118862088384853
0.000118845857449288
0.000118841701114988
0.000118845947186478
0.000118855549860591
0.000118868096463689
0.000118881757139191
0.000118895233388633
0.000118907667323102
0.000118918555199491
0.000118927663400608
0.000118934957094256
0.000118940536102793
0.000118944584711258
0.00011894733060628
0.000118949015602485
0.000118949874073638
0.000118950119740469
0.000118949937632879
0.000118949481096262
0.000118948871550169
0.000118948200644143
0.000118947534234327
0.000118946916387375
0.000118946373341171
0.00011894591760632
0.000118945551603077
0.000118945270838712
0.000118945066472977
0.000118944927364088
0.000118944841576377
0.000118944797464086
0.000118944784363732
0.000118944793003893
0.000118944815675625
0.000118944846245705
0.000118944880044955
0.00011894491372724
0.000118944945065671
0.000118944972728782
0.000118944996074027
0.000118945014966959
0.000118945029621416
0.000118945040472201
0.000118945048070904
0.000118945053010778
0.000118945055872047
0.00011894505718617
0.00011894505741519
0.000118945056943392
0.000118945056075123
0.00011894505504214
0.000118945054010618
0.000118945053091875
0.000118945052351397
0.00011894505182009
0.000118945051502638
0.000118945051386434
0.000118945051447106
0.000118945051655069
0.000118945051978205
0.00011894505238563
0.000118945052848725
0.000144458552026306
0.000136178525511137
0.000126912282041907
0.000117464176423978
0.000108353918356455
9.99394361691545e-05
9.24553113452311e-05
8.6245716927027e-05
8.1749248634276e-05
7.94605189478614e-05
7.96461363754805e-05
8.21586737016407e-05
8.64369417646966e-05
9.1713606136635e-05
9.72596710598687e-05
0.000102516101396304
0.000107138648996036
0.000110964104062087
0.000113966285759857
0.000116201220347887
0.000117770693835939
0.000118792058951416
0.00011938285527201
0.000119649818375979
0.000119685381369069
0.000119565544063058
0.000119350900307279
0.000119087601465055
0.000118809502393408
0.00011854021376858
0.000118295025360145
0.000118082549296077
0.000117906422955033
0.000117766640706761
0.000117660779807782
0.000117584911539578
0.00011753437599095
0.000117504311307315
0.000117490061885554
0.000117487414062526
0.000117492747239961
0.000117503078994483
0.000117516063900675
0.000117529937128311
0.000117543460831496
0.000117555828156463
0.000117566577356389
0.000117575507839396
0.000117582609697138
0.000117588000413508
0.000117591875937245
0.000117594470721524
0.000117596029651267
0.00011759678743702
0.000117596956311292
0.000117596718666127
0.000117596224635155
0.000117595592236053
0.000117594909839178
0.000117594240391183
0.000117593625390614
0.000117593088938833
0.00011759264185829
0.000117592285296293
0.000117592013854731
0.000117591818093932
0.000117591686519915
0.000117591607033389
0.000117591567963634
0.000117591558715922
0.000117591570146455
0.000117591594704203
0.000117591626423277
0.000117591660796333
0.000117591694628737
0.000117591725822434
0.000117591753151944
0.000117591776058552
0.000117591794471487
0.00011759180865
0.000117591819059383
0.000117591826269132
0.00011759183088113
0.000117591833477095
0.000117591834585291
0.000117591834661496
0.000117591834082259
0.000117591833143527
0.000117591832069192
0.000117591831017923
0.00011759183009468
0.000117591829359517
0.000117591828839108
0.000117591828534861
0.000117591828431928
0.000117591828504342
0.000117591828721685
0.000117591829051379
0.00011759182946255
0.000117591829926725
0.000144084082277744
0.000135290955606934
0.000125542083010715
0.000115705770371178
0.000106284102338794
9.76239193315816e-05
8.99762688267657e-05
8.37531885108273e-05
7.94601849776884e-05
7.75951558315382e-05
7.83152210395296e-05
8.13102684070111e-05
8.59055982330218e-05
9.13099061738005e-05
9.68352285998378e-05
0.000101980838631898
0.000106452655318824
0.000110120276521407
0.000112975870701128
0.000115083548275791
0.000116547511193203
0.000117484353795928
0.000118009552160007
0.000118227202642589
0.000118227094013326
0.00011808269873266
0.000117852353999163
0.000117580199573144
0.000117298381250462
0.000117029072162864
0.000116786356646786
0.000116577869080172
0.000116406490965575
0.000116271650835495
0.000116170531191269
0.000116098946725843
0.000116052095790053
0.00011602506003253
0.000116013191294296
0.00011601232462596
0.0001160189139494
0.000116030062588404
0.000116043513018011
0.000116057583630343
0.000116071112252028
0.000116083354850455
0.000116093900767589
0.00011610258897423
0.000116109438888362
0.000116114588287361
0.000116118246075688
0.000116120653758243
0.000116122058897339
0.00011612269570716
0.000116122773870289
0.000116122471990641
0.000116121935864236
0.000116121279067702
0.000116120585799261
0.00011611991534355
0.000116119306023147
0.000116118779343909
0.000116118344110455
0.000116117999974515
0.000116117740497657
0.000116117555573246
0.000116117433337911
0.00011611736154618
0.000116117328542154
0.000116117323851723
0.000116117338515375
0.000116117365195742
0.000116117398145764
0.000116117433065283
0.000116117466949271
0.000116117497858318
0.000116117524696029
0.000116117547004328
0.000116117564787491
0.000116117578357148
0.000116117588212575
0.000116117594942135
0.000116117599155529
0.000116117601433979
0.00011611760229999
0.000116117602200234
0.000116117601500719
0.000116117600486414
0.000116117599371085
0.000116117598303975
0.000116117597382156
0.000116117596659091
0.000116117596156381
0.000116117595871589
0.000116117595787266
0.000116117595875684
0.00011611759610556
0.000116117596443895
0.000116117596859928
0.000116117597325497
0.000143620288801206
0.000134222052333366
0.000123920276136356
0.000113646395844356
0.000103879457701024
9.49621548263633e-05
8.71802310429228e-05
8.10326697828874e-05
7.70843857281689e-05
7.57884259808347e-05
7.71382777762473e-05
8.06442143145145e-05
8.5539329054305e-05
9.10354896842694e-05
9.65019747657351e-05
0.000101502113750689
0.000105793166431067
0.000109277403247328
0.000111965104843691
0.000113928193994709
0.000115272986573869
0.000116114926285654
0.00011656699595762
0.000116730192575838
0.000116691217642184
0.00011652059475656
0.000116274028692031
0.000115993314452966
0.000115708618808252
0.00011544044512152
0.000115201495377947
0.00011499829542282
0.000114832882216614
0.000114704062473875
0.000114608595924581
0.00011454203245081
0.000114499435519978
0.000114475846106322
0.000114466644876845
0.000114467738756309
0.000114475679287248
0.000114487676699011
0.000114501579929176
0.00011451580636805
0.000114529281765813
0.000114541334242418
0.000114551611091729
0.000114559995466498
0.000114566538935716
0.00011457140096586
0.000114574803784504
0.000114576995583385
0.000114578225786428
0.000114578727037944
0.000114578705306436
0.000114578334255221
0.000114577754281502
0.00011457707358707
0.000114576371434456
0.000114575702817226
0.000114575102401128
0.000114574588751679
0.000114574168423349
0.000114573839429511
0.000114573594218994
0.000114573421997474
0.000114573310548105
0.000114573247518249
0.000114573221319057
0.000114573221654365
0.000114573239805987
0.000114573268702948
0.000114573302863386
0.000114573338233662
0.00011457337202969
0.000114573402494391
0.000114573428677982
0.000114573450235014
0.000114573467252216
0.000114573480097412
0.000114573489304985
0.000114573495481445
0.000114573499242398
0.000114573501165918
0.000114573501765919
0.000114573501477074
0.000114573500652198
0.000114573499562955
0.000114573498411007
0.000114573497334585
0.000114573496421649
0.000114573495718196
0.000114573495240153
0.000114573494980872
0.000114573494920123
0.000114573495028339
0.000114573495273436
0.00011457349562209
0.000114573496043789
0.000114573496510842
0.0001430584812567
0.000132964504392792
0.000122047315931925
0.000111295776436754
0.000101161207128857
9.19938617328753e-05
8.41360814357574e-05
7.81856624024383e-05
7.47386207363452e-05
7.41382426015403e-05
7.61704230285906e-05
8.01737755607961e-05
8.53248119337941e-05
9.0866090673083e-05
9.6235179830695e-05
0.000101060394197728
0.000105148207296534
0.000108431518082478
0.000110937476792954
0.000112745129479655
0.000113962495088894
0.000114703529502239
0.000115078405478769
0.000115184692411454
0.000115105685391985
0.000114908650674511
0.000114646382954497
0.000114358086188956
0.000114071755450385
0.000113806055819176
0.0001135721887779
0.000113375490373431
0.000113217104761109
0.000113095193238864
0.000113006089194534
0.000112945087139283
0.000112907134066355
0.000112887252846914
0.000112880877207336
0.000112884009221217
0.000112893319320305
0.000112906142850507
0.000112920450227967
0.000112934770048771
0.000112948124600579
0.000112959920424186
0.000112969866970224
0.000112977894016914
0.000112984086403411
0.000112988625416346
0.000112991746086133
0.000112993702356644
0.00011299474437646
0.000112995102016609
0.000112994976372587
0.000112994535111765
0.000112993912322162
0.000112993210074321
0.000112992502117978
0.00011299183869421
0.000112991250490129
0.000112990752921001
0.00011299035016863
0.000112990038551145
0.000112989809396215
0.000112989651246183
0.000112989551575798
0.000112989497980996
0.000112989478999212
0.000112989484569715
0.000112989506268154
0.000112989537335344
0.000112989572592266
0.000112989608262257
0.00011298964180455
0.000112989671660361
0.000112989697037402
0.000112989717709347
0.000112989733848451
0.000112989745879306
0.000112989754370242
0.000112989759943698
0.000112989763218401
0.00011298976476629
0.000112989765089798
0.000112989764608943
0.000112989763661054
0.000112989762502588
0.000112989761321577
0.00011298976024408
0.000112989759348121
0.000112989758671685
0.000112989758224714
0.000112989757996196
0.00011298975796308
0.000112989758094042
0.000112989758356297
0.000112989758716345
0.000112989759144072
0.000112989759612428
0.000142388725928234
0.000131510289112787
0.00011992334581544
0.000108663926783027
9.81527147922203e-05
8.87641884107829e-05
8.09198418796439e-05
7.53139655521554e-05
7.25220168637675e-05
7.27070813887337e-05
7.54263972885472e-05
7.98784252227501e-05
8.52242844903044e-05
9.07598436248915e-05
9.59960602302219e-05
0.000100623351720861
0.000104493104423932
0.000107565619174061
0.000109883024927481
0.000111530513299112
0.000112617308724292
0.000113255581255629
0.000113552467662763
0.000113601896853961
0.000113483552727376
0.000113261245658509
0.000112984681506736
0.000112690316687222
0.00011240386278763
0.00011214204459865
0.000111914505768557
0.000111725361063409
0.000111574853112583
0.000111460504871041
0.000111378241958639
0.000111323128072883
0.000111290021139224
0.000111273952887788
0.000111270435130868
0.000111275586788451
0.000111286215289883
0.000111299795378082
0.00011131442972779
0.000111328766346258
0.000111341928788358
0.000111353405132127
0.000111362968523512
0.000111370595700459
0.000111376404295351
0.00011138059641292
0.00011138341861431
0.00011138512922106
0.000111385977764841
0.000111386190110175
0.000111385961407577
0.000111385452434378
0.000111384790257629
0.000111384070271086
0.000111383360342984
0.000111382705680609
0.000111382132835308
0.000111381653996748
0.000111381270957539
0.000111380978363983
0.000111380766471571
0.00011138062322196
0.00011138053584935
0.000111380491964821
0.000111380480293397
0.000111380491063322
0.000111380516188852
0.000111380549258279
0.000111380585422629
0.000111380621202647
0.000111380654313708
0.000111380683403309
0.000111380707840838
0.000111380727520242
0.000111380742698301
0.000111380753854043
0.00011138076158662
0.000111380766531018
0.000111380769305737
0.000111380770473474
0.000111380770522485
0.000111380769855853
0.000111380768793613
0.000111380767575639
0.000111380766375297
0.0001113807653058
0.000111380764434809
0.000111380763792093
0.000111380763381562
0.000111380763187885
0.00011138076318532
0.000111380763340934
0.000111380763621416
0.000111380763993262
0.000111380764426918
0.000111380764896109
0.000141600214603455
0.000129851470324391
0.000117549280635525
0.000105762556815077
9.48812765281296e-05
8.53251842417003e-05
7.76135161256733e-05
7.25139378691555e-05
7.0509658752384e-05
7.15228551033447e-05
7.48904656002505e-05
7.97180632911008e-05
8.51898247126956e-05
9.06700830311993e-05
9.57430489314169e-05
0.00010015589886593
0.000103799524092167
0.000106657856245942
0.000108785786605857
0.000110273508385404
0.00011123089054698
0.000111768038635665
0.000111988888284319
0.000111983601906379
0.000111828139884496
0.000111582752317627
0.000111293965450375
0.000110995414697129
0.000110710487948137
0.000110453931995528
0.000110233830181253
0.000110053088932719
0.000109911075122476
0.000109804706340323
0.000109729536874618
0.000109680435588146
0.000109652204734437
0.000109639913924402
0.000109639177194138
0.000109646249303556
0.000109658088966653
0.000109672320365503
0.000109687184927134
0.000109701454425004
0.000109714354744677
0.000109725455774237
0.00010973459352465
0.000109741790211398
0.000109747194454145
0.000109751027270973
0.000109753544919946
0.000109755008435814
0.000109755665299889
0.00010975573618708
0.000109755409370566
0.000109754838035452
0.000109754141728464
0.000109753408833397
0.000109752701170366
0.000109752058799534
0.000109751504130088
0.000109751046169493
0.000109750684395788
0.000109750411873672
0.000109750217881298
0.000109750089851035
0.000109750014859592
0.000109749980604945
0.000109749976059028
0.000109749991785982
0.000109750020074111
0.000109750054884422
0.000109750091714614
0.000109750127393606
0.00010975015989672
0.000109750188078477
0.00010975021146816
0.000109750230076499
0.000109750244240411
0.000109750254488668
0.000109750261446668
0.000109750265757763
0.000109750268036603
0.000109750268833641
0.000109750268620569
0.000109750267781727
0.000109750266618573
0.000109750265353543
0.000109750264144802
0.000109750263092473
0.000109750262253808
0.000109750261650451
0.000109750261280465
0.000109750261124423
0.000109750261154113
0.000109750261335247
0.000109750261634184
0.000109750262017602
0.000109750262456654
0.000109750262925976
0.000140681591152604
0.000127980871072167
0.000114927670513998
0.00010260619599254
9.13794359930088e-05
8.17361654750149e-05
7.43020110490804e-05
6.986991228192e-05
6.87489709356995e-05
7.0583895006435e-05
7.45273486344694e-05
7.96445736592211e-05
8.51730779592389e-05
9.05532081167942e-05
9.54384602031917e-05
9.96261986288704e-05
0.000103041110260059
0.000105686905573556
0.000107628943627036
0.000108961213277523
0.000109793631638286
0.000110233968554187
0.000110382829417077
0.000110326543623052
0.000110137304380745
0.000109871771299084
0.000109573272269542
0.000109272622189633
0.000108990892658203
0.000108740881645927
0.000108529151387069
0.00010835744895062
0.000108224318481844
0.000108126124866866
0.000108058100287665
0.000108014962176901
0.000107991493573655
0.000107982831034382
0.000107984712847075
0.000107993545288863
0.000108006448683626
0.000108021202630158
0.000108036190082657
0.000108050307020511
0.00010806288012827
0.000108073558873942
0.000108082239392376
0.000108088986482082
0.000108093976951597
0.000108097448191258
0.000108099663962468
0.000108100886203002
0.000108101358914678
0.000108101296506866
0.000108100879609904
0.000108100253311477
0.000108099529341175
0.000108098788932428
0.00010809808786896
0.000108097461091493
0.00010809692698657
0.00010809649151785
0.000108096151994178
0.000108095900038818
0.000108095724079849
0.000108095611150332
0.000108095548260433
0.000108095523267045
0.000108095525443381
0.000108095545728358
0.000108095576810113
0.000108095613037607
0.000108095650262203
0.000108095685623265
0.000108095717352164
0.000108095744505203
0.000108095766764966
0.000108095784251864
0.000108095797375997
0.000108095806709536
0.000108095812898583
0.000108095816590276
0.000108095818391745
0.000108095818838468
0.000108095818383566
0.00010809581739132
0.00010809581614383
0.000108095814845719
0.000108095813639848
0.000108095812613388
0.000108095811813441
0.000108095811253862
0.000108095810927229
0.000108095810810357
0.0001080958108729
0.000108095811079483
0.000108095811396366
0.000108095811790594
0.000108095812234168
0.000108095812702728
0.000139621264112259
0.000125892653205953
0.000112063397282507
9.92130823664088e-05
8.76858036904847e-05
7.8062894655438e-05
7.10685337070388e-05
6.74482363962716e-05
6.72596737323191e-05
6.986640693956e-05
7.42919696374183e-05
7.96098133048884e-05
8.51308094975543e-05
9.03725832555942e-05
9.50515931784745e-05
9.90085151407633e-05
0.00010219633643283
0.000104634902414058
0.000106397833113221
0.000107581724806627
0.000108295940237522
0.000108645647610676
0.000108728013818747
0.000108625507477131
0.000108406559445642
0.000108124263974026
0.000107818787480198
0.000107518178935847
0.000107241250613655
0.000106998921539392
0.000106796307539011
0.000106634072301124
0.000106510009789017
0.000106419998140679
0.00010635900448884
0.000106321641974846
0.000106302711429467
0.000106297443897951
0.000106301721062005
0.000106312112867265
0.000106325907816103
0.00010634104329208
0.0001063560434078
0.000106369925594891
0.000106382113791804
0.000106392332905446
0.000106400535055268
0.000106406823739876
0.00010641140050395
0.000106414516188359
0.000106416439688878
0.000106417432013204
0.00010641773233296
0.000106417547858929
0.000106417050987973
0.000106416378390689
0.000106415633861727
0.000106414891523244
0.000106414201229928
0.000106413592989777
0.000106413081366881
0.000106412669488476
0.000106412352689113
0.000106412121323791
0.000106411963117333
0.000106411864822695
0.000106411813476092
0.000106411797161768
0.000106411805501767
0.00010641182984011
0.000106411863281409
0.00010641190056894
0.000106411937906533
0.000106411972739435
0.000106412003544964
0.000106412029571505
0.000106412050644778
0.000106412066985212
0.000106412079067455
0.000106412087499706
0.000106412092942759
0.000106412096042852
0.000106412097396119
0.000106412097520646
0.00010641209684942
0.000106412095725802
0.000106412094412196
0.000106412093095458
0.000106412091903392
0.000106412090910647
0.000106412090154678
0.000106412089642056
0.000106412089360366
0.000106412089283096
0.000106412089378128
0.000106412089609319
0.000106412089943056
0.000106412090346922
0.000106412090793888
0.000106412091260675
0.000138407719022014
0.000123582818200389
0.000108964229756864
9.5605826382545e-05
8.38453169896782e-05
7.43755534377081e-05
6.7989159705004e-05
6.52932633985637e-05
6.60370524679155e-05
6.93325716766972e-05
7.41369200301411e-05
7.9570352035988e-05
8.50274060752449e-05
9.00998270981703e-05
9.45595643309647e-05
9.82840209705945e-05
0.000101249482408643
0.00010348864462143
0.000105081366395109
0.000106125735568795
0.000106729978135898
0.000106996404328268
0.000107018648359903
0.000106875315732443
0.000106631113364955
0.000106335635147282
0.000106025963972742
0.00010572747818143
0.000105456823389407
0.00010522314018402
0.000105030197424214
0.000104877669647025
0.000104762685500332
0.000104680709867747
0.000104626505419203
0.000104594628815567
0.000104579934282633
0.000104577772285739
0.000104584183754142
0.00010459591099802
0.00010461041391003
0.000104625786995895
0.000104640692543165
0.000104654264573429
0.000104666018964976
0.000104675750685721
0.000104683462785608
0.000104689292977663
0.000104693463734609
0.000104696236264318
0.000104697882203962
0.000104698659870121
0.000104698802383324
0.000104698508983682
0.000104697943413812
0.000104697233772544
0.000104696475951534
0.000104695737129986
0.000104695061452954
0.000104694474261376
0.000104693986564291
0.000104693598905624
0.000104693304870827
0.000104693093737803
0.000104692952683434
0.000104692868301334
0.000104692827743084
0.000104692819382479
0.000104692833230101
0.000104692861057025
0.000104692896392804
0.000104692934373922
0.000104692971549258
0.000104693005659257
0.000104693035413407
0.000104693060239078
0.000104693080092604
0.000104693095283198
0.000104693106340468
0.000104693113900826
0.000104693118633654
0.00010469312117977
0.000104693122121118
0.00010469312195641
0.000104693121097326
0.000104693119865871
0.000104693118504786
0.000104693117183541
0.000104693116015396
0.00010469311506313
0.000104693114355217
0.000104693113891564
0.000104693113655338
0.000104693113617169
0.000104693113743574
0.000104693113997936
0.000104693114347002
0.000104693114759047
0.000104693115208115
0.000104693115672056
0.00013702983595611
0.000121049633810593
0.000105641250128147
9.18118380220023e-05
7.99088691902253e-05
7.07456191990966e-05
6.51275015651615e-05
6.34260982080189e-05
6.50574785263968e-05
6.89378481118407e-05
7.40174508279279e-05
7.94897595704955e-05
8.4835575179648e-05
8.97146204734907e-05
9.39468982846176e-05
9.74404692182605e-05
0.000100190521322126
0.000102239735063115
0.000103672416482671
0.000104587134383787
0.000105090436366711
0.000105281535179315
0.000105250451056509
0.000105071942058998
0.000104807053107548
0.000104501970869475
0.000104190801872276
0.000103896378210195
0.000103633295676872
0.000103409037953349
0.000103226142011762
0.000103083398131719
0.000102977360744115
0.000102903157770046
0.00010285540810878
0.000102828658095758
0.000102817848173742
0.000102818469881978
0.00010282673584837
0.000102839566234682
0.00010285459266284
0.000102870063665676
0.000102884774768047
0.000102897970171907
0.00010290925124046
0.00010291847685021
0.000102925695418305
0.000102931074103592
0.000102934852385263
0.000102937298764564
0.000102938685317156
0.000102939266046305
0.000102939266961609
0.000102938878726134
0.000102938256164432
0.000102937518789648
0.000102936754742204
0.000102936024525438
0.000102935366870988
0.000102934802773911
0.000102934339996458
0.000102933976777969
0.000102933705194253
0.000102933513643201
0.000102933388908857
0.000102933317541996
0.00010293328689218
0.000102933285677033
0.000102933304327205
0.00010293333505499
0.00010293337181633
0.000102933410133797
0.000102933446889426
0.000102933480103049
0.000102933508700807
0.000102933532273641
0.000102933550894602
0.000102933564949689
0.00010293357501357
0.000102933581743041
0.000102933585810173
0.000102933587846174
0.000102933588416028
0.000102933587997452
0.000102933586980081
0.000102933585664472
0.000102933584274025
0.000102933582961483
0.000102933581826246
0.000102933580920034
0.000102933580263105
0.000102933579849392
0.000102933579658253
0.000102933579657951
0.000102933579814031