/*--------------------------------*- C++ -*----------------------------------*\
| =========                 |                                                 |
| \\      /  F ield         | OpenFOAM: The Open Source CFD Toolbox           |
|  \\    /   O peration     | Version:  2.3.x                                 |
|   \\  /    A nd           | Web:      www.OpenFOAM.org                      |
|    \\/     M anipulation  |                                                 |
\*---------------------------------------------------------------------------*/
FoamFile
{
    version     2.0;
    format      ascii;
    class       volScalarField;
    location    "20000";
    object      omega;
}
// * * * * * * * * * * * * * * * * * * * * * * * * * * * * * * * * * * * * * //

dimensions      [0 0 -1 0 0 0 0];

internalField   nonuniform List<scalar> 
10000
(
22.1528830607976
20.0180286751115
18.4684991669687
17.3627467148644
16.6398119598362
16.2430589874049
16.1586784153171
16.3748411188116
16.8862029662631
17.6686097364483
18.6636671717538
19.784706204333
20.896676223114
21.9183567350796
22.844943890701
23.6108068022894
24.2064225477881
24.6324633921751
24.9193720950419
25.0918587302992
25.1818785584308
25.2108123298396
25.2003223620555
25.1634078986145
25.1122610162215
25.0533979122738
24.9928377081373
24.933242269087
24.8771718575545
24.8253156950173
24.7784929979663
24.7365213870859
24.6994379437132
24.6667584358991
24.638225986716
24.613316588089
24.5917057742968
24.5729314814979
24.5566941170364
24.5426196536172
24.5304627528982
24.5199322647896
24.5108396143719
24.5029614101423
24.4961586334005
24.4902597290384
24.4851657362264
24.4807435061709
24.4769251975999
24.4736057302807
24.4707410061979
24.4682461963219
24.4660954872683
24.4642181675886
24.4626030014404
24.4611885823378
24.4599756898045
24.4589086312326
24.4579982512314
24.4571920807993
24.456509371423
24.4558993185263
24.4553879894803
24.4549255394756
24.4545431713364
24.4541919662466
24.4539065568162
24.4536393329292
24.4534267280287
24.453223032887
24.4530649765256
24.4529094829931
24.4527921633087
24.4526733687295
24.4525863685737
24.4524955959945
24.452431099235
24.4523617597859
24.4523139443113
24.4522609946378
24.4522255571408
24.4521851149737
24.4521588859728
24.4521279625214
24.452108603703
24.4520849111543
24.4520706808807
24.4520524852588
24.4520420765462
24.4520280609324
24.4520205070288
24.4520096542344
24.45200425133
24.4519957771276
24.4519920009764
24.4519853167989
24.4519827681955
24.4519774269646
24.4519758383038
24.4519713226513
22.1589742407785
20.034016912523
18.5000022097532
17.4134239466713
16.7144139884361
16.3475502855271
16.3006596588924
16.5632025359433
17.1282925937954
17.9683664051084
19.0163620022738
20.178709459321
21.3095980959316
22.3353536914727
23.2632419796325
24.021443954525
24.6062683560236
25.0192403035968
25.2941328866286
25.4553463093827
25.5360230788911
25.5568328874575
25.5398308784997
25.497395352485
25.4418524030241
25.3792803606009
25.3157493126926
25.2536366518528
25.1955255275439
25.1419267546236
25.0936714228683
25.0504666543255
25.0123559140476
24.9787864164671
24.9495043292197
24.9239426189718
24.9017777100754
24.8825200309564
24.8658695667159
24.8514342937566
24.8389677645703
24.8281667493883
24.8188413149922
24.8107597390579
24.8037816720095
24.7977296538647
24.7925035689297
24.7879659700218
24.7840480998331
24.7806416639099
24.7777019034885
24.7751415106369
24.7729342676646
24.7710074716357
24.7693497334679
24.7678979694407
24.7666530409071
24.7655577747028
24.7646233082768
24.763795812846
24.763095013551
24.7624688219296
24.7619439226085
24.7614692449979
24.7610767105082
24.7607162295957
24.7604232143565
24.7601489453803
24.7599306582391
24.7597216064308
24.7595593095734
24.7593997409495
24.7592792580229
24.7591573634044
24.7590680035499
24.7589748735342
24.7589086158387
24.7588374845607
24.7587883546396
24.7587340431233
24.7586976250911
24.7586561470246
24.7586291878282
24.7585974751395
24.7585775739962
24.7585532789456
24.7585386470497
24.7585199906382
24.7585092855305
24.7584949163607
24.7584871454344
24.7584760194784
24.7584704599625
24.758461772702
24.7584578858126
24.7584510335377
24.7584484093608
24.7584429327148
24.7584412992517
24.7584366473394
22.1704331836317
20.068003580992
18.566453490443
17.5204978893565
16.8713162107451
16.5668047743955
16.5980503134421
16.9564150490676
17.6322566427407
18.5888864413271
19.743104452235
20.9858440133372
22.1526266540691
23.1850653027606
24.1130555487216
24.8546889572193
25.4171768865557
25.8042198459524
26.0553129050692
26.1944990486088
26.2568800889448
26.2618984229364
26.2322101242273
26.1790757423922
26.1150006538978
26.0452612815053
25.9759840728624
25.9090204576777
25.8469749532354
25.790026612018
25.7390169576872
25.6934468835523
25.6533653811073
25.6180913973237
25.5873733438185
25.5605635036995
25.5373381446151
25.5171559692135
25.4997152481793
25.4845899815618
25.4715312257651
25.4602128058036
25.4504421213627
25.4419714827932
25.4346581101377
25.4283130808119
25.4228343038556
25.4180758448819
25.4139675078716
25.4103945147709
25.4073112127125
25.4046251635733
25.4023097917053
25.4002881490276
25.3985490145707
25.3970256105937
25.3957194674506
25.3945700393979
25.3935895923824
25.3927210988454
25.3919858148241
25.391328543344
25.3907778261057
25.3902795488047
25.3898677233669
25.389489290415
25.389181891767
25.3888939423558
25.3886649547284
25.3884454604011
25.3882752183556
25.388107670673
25.3879812951576
25.3878533021794
25.3877595741689
25.3876617845457
25.3875922883648
25.3875175988747
25.3874660676307
25.387409039524
25.3873708424088
25.3873272887044
25.3872990144667
25.3872657129857
25.387244843586
25.3872193293837
25.3872039879343
25.38718439369
25.3871731716389
25.3871580782026
25.3871499350392
25.3871382453722
25.3871324235755
25.3871232928034
25.3871192270318
25.3871120214092
25.3871092820081
25.3871035180403
25.3871018253171
25.3870968865545
22.1889368707867
20.1204098217388
18.6663254142737
17.6799141456666
17.1033918780752
16.8897737993966
17.0354093487876
17.5323949160163
18.3663077300932
19.4841507013622
20.7808051600068
22.125464894777
23.3339481540686
24.3718115099111
25.2941829088831
26.0106278122076
26.5413017405409
26.8934913981263
27.1127769761926
27.2231179447003
27.2615063925494
27.2460598762806
27.1998923789286
27.1329834357426
27.0579028309273
26.9789873638418
26.9023449038963
26.829203452945
26.7621441058149
26.700950111776
26.6464477847572
26.5978910779466
26.5553200475068
26.5178997064557
26.4853724620055
26.4569935692518
26.4324342626619
26.4110908530686
26.3926568711884
26.3766651281643
26.362862235368
26.3508939802826
26.3405638379017
26.3316043824301
26.3238696412264
26.3171563036288
26.3113599239557
26.3063237082316
26.3019759469441
26.2981933786545
26.2949296312905
26.2920853829362
26.2896340959692
26.2874929667178
26.2856515496026
26.284037824499
26.2826548022408
26.2814370214184
26.2803988800427
26.2794785801889
26.2787000845562
26.2780034748069
26.2774204664939
26.2768922569556
26.2764563631878
26.2760551040149
26.275729816152
26.2754244204245
26.2751821756059
26.274949319576
26.2747692788804
26.2745914846593
26.2744578792964
26.2743220258186
26.2742229679161
26.274119150378
26.2740457252414
26.2739664165314
26.2739119890665
26.2738514223594
26.2738110928139
26.2737648261594
26.2737349867951
26.2736996009962
26.2736775890925
26.273650468828
26.2736342990457
26.2736134636097
26.2736016461035
26.273585589197
26.2735770249534
26.2735645809496
26.2735584704489
26.2735487421141
26.2735444877259
26.2735368027586
26.2735339503825
26.2735277945824
26.2735260554692
26.2735207284675
22.2148814159231
20.1923514836515
18.8008205007585
17.8921301017458
17.4109103603354
17.3165910179924
17.6126043625218
18.288921135965
19.3220110838006
20.6347425927114
22.0947501999529
23.5470391549918
24.7914030030989
25.83010608848
26.7371544414566
27.4198352333795
27.9109738628509
28.2221696037576
28.404520448096
28.4820483481317
28.4932242290505
28.4548506725833
28.390237407052
28.3080571883412
28.2207850478272
28.1317892138813
28.0470652691062
27.9671951162302
27.894682553455
27.8288996464772
27.7706271626844
27.718862429203
27.6736197862484
27.633904398419
27.5994435148132
27.5693917115343
27.543410250108
27.5208306674551
27.5013391302125
27.4844255518492
27.4698307666242
27.4571711566235
27.4462456895982
27.4367660007993
27.428582805826
27.4214772776818
27.4153428043602
27.4100106378516
27.4054079564334
27.4014019380217
27.3979460504707
27.3949330097838
27.3923370130506
27.3900682928316
27.3881180135835
27.3864077460507
27.384942956457
27.3836520236939
27.3825525893504
27.3815767568542
27.3807524319138
27.3800135681632
27.3793963927212
27.3788359514668
27.3783746690771
27.3779487561758
27.3776046714731
27.377280366634
27.3770242591487
27.3767768647142
27.3765866360252
27.3763976470771
27.3762565725699
27.3761120958333
27.3760075692581
27.3758971128172
27.3758196849555
27.3757352698701
27.3756779135109
27.3756134209495
27.375570952063
27.3755216645386
27.3754902695958
27.375452553522
27.3754294194089
27.375400495338
27.3753835240765
27.3753612876256
27.3753489049848
27.3753317545298
27.3753228014483
27.3753094956984
27.3753031301835
27.3752927140429
27.3752883053759
27.3752800646322
27.375277132992
27.3752705203195
27.3752687683434
27.3752629906527
22.2496599642968
20.2860285280304
18.9726789449227
18.1601071373893
17.7978677732696
17.8528348187202
18.3361459088286
19.2309895714077
20.4979370077091
22.0279454822143
23.6574232032762
25.2089407787205
26.473837977355
27.5051590696097
28.3858614879365
29.0266947629156
29.4723234083549
29.7386173255326
29.8812523976896
29.9242025358096
29.9069138088119
29.8448611114177
29.7612848152876
29.6635667952474
29.5639423161669
29.4648288087129
29.3720285442317
29.2854914083802
29.2075986550121
29.1373215934809
29.0753706182553
29.0204940731826
28.9726673934593
28.9307414594118
28.8944216989549
28.8627659874998
28.8354225246255
28.8116608266685
28.7911585192382
28.7733644239942
28.7580134272231
28.7446935858604
28.7331997140276
28.7232230402048
28.7146115983218
28.707131165577
28.7006737444201
28.6950584500285
28.6902122102444
28.6859922407181
28.6823527595281
28.6791779498616
28.6764437027308
28.6740525658405
28.671998338988
28.6701953184562
28.6686525321419
28.6672911972978
28.666133392389
28.6651039956076
28.6642361326985
28.6634563970301
28.6628068720176
28.6622151452281
28.6617299309887
28.6612799897982
28.6609182871385
28.6605754654972
28.6603064562556
28.6600447509697
28.6598451197316
28.6596450517023
28.6594971492147
28.6593440928615
28.6592346182763
28.6591175234988
28.6590365128917
28.6589469680389
28.6588870198573
28.6588185658228
28.658774227556
28.6587218778701
28.6586891442067
28.6586490540546
28.6586249732289
28.6585942009524
28.6585765711235
28.6585528903052
28.6585400594573
28.6585217740232
28.658512528786
28.658498321516
28.6584917824342
28.6584806400684
28.658476146512
28.6584673137189
28.6584643616727
28.6584572588398
28.6584555442808
28.6584492847913
22.2950108997586
20.4043075689099
19.185661972046
18.4886940315641
18.2711562274558
18.507940507261
19.2167392591982
20.3671632992485
21.8951922776466
23.653001618525
25.4443965513702
27.0752346212182
28.3393262718748
29.3528123985921
30.1961165200596
30.7880031979721
31.1838058630599
31.403091167428
31.5050353566975
31.5132727026171
31.4677171811494
31.3824707677963
31.280468472022
31.1678308790038
31.0564355045048
30.9477890047442
30.8474380760491
30.754734124368
30.6719024912923
30.5975386370522
30.5322650924292
30.4745989618923
30.4244681650734
30.3805817349084
30.3426195745606
30.3095514973399
30.2810115587684
30.2562131965344
30.2348257461436
30.2162609577882
30.2002486543674
30.1863512122408
30.1743604437725
30.1639488270652
30.1549629541577
30.1471541471957
30.1404142701756
30.1345507254608
30.1294914059807
30.1250836192162
30.1212835086681
30.1179665004283
30.1151113342022
30.1126124185586
30.1104673549339
30.1085825091601
30.1069716739158
30.105548072078
30.1043394726468
30.1032625436659
30.1023569383394
30.1015407805643
30.1008633606617
30.1002436117583
30.0997379053991
30.0992663130123
30.0988896612425
30.0985300400674
30.0982502085463
30.0979754231091
30.0977680136116
30.0975577423133
30.0974042815642
30.0972432656471
30.097129834343
30.0970065391028
30.0969227179658
30.096828351712
30.096766412448
30.0966942129639
30.096648472643
30.0965932103703
30.0965595025818
30.0965171392852
30.096492397838
30.0964598427589
30.0964417799439
30.0964166948407
30.0964035943738
30.0963841960523
30.096374801219
30.0963597010965
30.0963531039259
30.0963412339875
30.0963367499547
30.0963273175199
30.0963244219353
30.0963168182417
30.0963152034725
30.0963084533143
22.3529699162029
20.5505951632855
19.4444196234857
18.8843963026774
18.840125398499
19.2942602680774
20.26769781992
21.7073255200269
23.5148309599877
25.4988270294723
27.43261152115
29.114476285511
30.3542565368612
31.338545954181
32.1342741976556
32.6714307366315
33.0146191767444
33.1862312158669
33.2478512574472
33.2223978116798
33.1497800290414
33.0426662425614
32.9234864856608
32.7971360771658
32.6750437850941
32.5578566478494
32.4508212722239
32.3527342665632
32.2656428156011
32.1877992193443
32.1197275043082
32.0597368153902
32.0077031703992
31.962209999035
31.9229106263685
31.8886980366251
31.8591927731715
31.8335599168941
31.8114619158267
31.7922787090138
31.7757367450511
31.7613762447766
31.7489877502705
31.7382272833737
31.7289416603562
31.7208691587709
31.7139030685897
31.7078398546103
31.7026098263749
31.6980507043121
31.6941219068279
31.6906900837684
31.6877381061073
31.6851519480937
31.6829342713105
31.6809829804272
31.6793178999114
31.6778435270177
31.6765946155937
31.6754787237223
31.6745433611245
31.6736971470587
31.6729979353201
31.6723548754257
31.6718333564165
31.6713435845714
31.6709555841832
31.6705817089476
31.6702938340616
31.670007826409
31.6697947873735
31.6695756641489
31.6694183076822
31.6692503130353
31.669134210258
31.6690054263425
31.66891978673
31.6688211153907
31.6687579502506
31.6686823791636
31.6686358271406
31.6685779216159
31.6685436963611
31.6684992516917
31.6684742046134
31.6684400010496
31.6684217823303
31.6683953854079
31.6683822322949
31.6683617830769
31.6683524097576
31.6683364558635
31.6683299372849
31.668317361674
31.668312997202
31.6683029754933
31.6683002244964
31.6682921233497
31.6682906783202
31.6682834424914
22.4258580987364
20.7287754863201
19.7544548553472
19.3552608617402
19.5162959171863
20.226406265527
21.5037359389831
23.2610485070661
25.3562564747481
27.5529585254858
29.599826455863
31.2992995011601
32.4925800615175
33.4362472083735
34.1756083061203
34.6537239594875
34.9428852352151
35.0673014344831
35.0899360492745
35.0326013212364
34.9347852029818
34.8076615565301
34.6729941151647
34.5344926867053
34.4030711770919
34.2785727486065
34.1659151878288
34.0633881051642
33.9728481291612
33.8922402888687
33.821985529158
33.7602106022546
33.7067389419587
33.6600461786162
33.6197602687803
33.5847096461851
33.5545033714033
33.5282665962689
33.5056571662506
33.4860289570668
33.4691073067179
33.4544141527215
33.4417408850218
33.4307296185352
33.4212293278931
33.412966848867
33.4058386520152
33.3996311878375
33.3942787701317
33.3896099696422
33.3855889268337
33.3820735879442
33.3790523082773
33.3764024051255
33.3741329094124
33.37213279172
33.3704292107574
33.3689172542055
33.3676399780638
33.3664949707367
33.3655389403774
33.3646700017824
33.3639559330805
33.3632950037563
33.3627629772721
33.3622590504645
33.361863772143
33.3614786068743
33.3611858203967
33.3608907658151
33.3606745102814
33.3604481274212
33.3602887354982
33.3601149260932
33.3599975847357
33.3598641632723
33.3597778074144
33.3596754533121
33.3596119097536
33.3595334215063
33.3594867095327
33.3594264913395
33.3593922511696
33.3593459633884
33.3593209999744
33.3592853175536
33.3592672456145
33.3592396562122
33.3592266864599
33.3592052688346
33.3591961022737
33.359179349322
33.3591730565263
33.3591598090729
33.3591556819432
33.359145090541
33.3591425778345
33.3591339898538
33.3591327882551
33.3591250788224
22.5162728675763
20.9431892728317
20.122141463275
19.9108353501887
20.3131644619675
21.3207067104415
22.9399208634606
25.0363243806963
27.4162891708954
29.8012602143311
31.9246861704273
33.6063292877073
34.7350986272959
35.6268608105094
36.3026794806853
36.7189416791426
36.9538709445911
37.0324608054213
37.0181345006404
36.9312375956522
36.8104874614371
36.6655133391674
36.5172885030274
36.3683799853831
36.22914261335
36.0986724093656
35.9815430184816
35.8755853889688
35.7824614804951
35.6998452918525
35.6280551838056
35.5650612829487
35.5106368135252
35.463167491262
35.4222589250963
35.3866872848893
35.3560532396889
35.329450416511
35.3065349648832
35.2866404156528
35.2694936277243
35.254602104666
35.2417604241003
35.230599330913
35.220972029349
35.2125955129054
35.2053712746721
35.1990766778184
35.1936516843976
35.1889161614417
35.1848404555193
35.1812738923409
35.1782116897934
35.1755222957346
35.1732224374184
35.1711916874939
35.1694658538948
35.1679299391662
35.1666366269133
35.1654726842142
35.1645053640746
35.1636212852124
35.1628995120434
35.1622263467306
35.1616892815441
35.1611753702721
35.16077700739
35.160383627309
35.1600891526887
35.1597873114371
35.1595703205758
35.159338335535
35.1591788188323
35.159000408773
35.1588832988276
35.1587461295801
35.1586601869739
35.1585548021928
35.1584917476975
35.1584108196202
35.1583646141791
35.1583024314468
35.1582686898036
35.1582208105638
35.1581963281726
35.1581593467692
35.1581417302099
35.1581130755546
35.1581005294764
35.1580782320182
35.1580694606035
35.1580519679528
35.1580460504655
35.1580321685403
35.158028398216
35.1580172594774
35.1580150799301
35.1580060179109
35.1580051341462
35.1579969653067
22.6270867881771
21.1986408132335
20.5547787183733
20.562178640858
21.2460515958135
22.5946703075761
24.5906913240389
27.0385940798472
29.6887619336288
32.2281401082287
34.3871160542473
36.0162074279787
37.0687731963558
37.8970532755489
38.5038701379677
38.8569043297151
39.0384295041811
39.0732451779285
39.0244488221166
38.9106139749802
38.7694073172568
38.6088804333506
38.4491260659449
38.2916142415652
38.1461150344401
38.0110333329332
37.8905942417948
37.7822170250331
37.687371488485
37.6034956076165
37.5308096521287
37.4671518885245
37.412250053276
37.3644170410682
37.3232404661307
37.2874559068485
37.2566594584454
37.2299211605473
37.2068987522204
37.186910790774
37.1696884747115
37.1547284702092
37.1418309675386
37.1306176977391
37.1209481990179
37.1125310944905
37.1052747496303
37.0989482783163
37.0934989308585
37.0887382553525
37.0846442799703
37.0810577503432
37.0779821166285
37.0752767140817
37.0729672864049
37.0709235217138
37.0691911871383
37.067644507642
37.0663471161678
37.0651740943082
37.0642045834435
37.0633127056896
37.0625901708097
37.0619102209196
37.0613734276771
37.0608535661062
37.0604561926133
37.0600575709294
37.0597645411496
37.0594580973751
37.059242783548
37.0590067972009
37.0588490138756
37.0586671753525
37.0585517265811
37.058411668353
37.0583272376628
37.058219451409
37.0581577298562
37.058074822348
37.0580297718925
37.0579659601718
37.0579332167919
37.0578839883515
37.0578603739322
37.0578222664196
37.0578054059002
37.0577758080544
37.0577639198895
37.0577408273552
37.0577326348509
37.0577144589739
37.057709062861
37.0576945816497
37.0576912849603
37.0576796196376
37.0576778661034
37.0576683416394
37.0576678485964
37.0576592333778
22.7614483193052
21.5004279314495
21.0606743331468
21.3219039808766
22.3319454536413
24.0663972386311
26.4689281552449
29.2700797886245
32.1645547221293
34.8170950021195
36.9688426273451
38.5136020341555
39.4853584911253
40.237968490223
40.772157085237
41.0619128194513
41.1917176855193
41.1853172389352
41.1048401064782
40.9668480664875
40.8077433444854
40.6339865371756
40.4647299722725
40.3003954683529
40.1501580405466
40.0117858993638
39.8891598790815
39.779332236673
39.6835882463172
39.5991628112282
39.5261855915435
39.4623861165032
39.4074530395101
39.3596422633305
39.3185286510141
39.2828179067334
39.2521057981947
39.2254460038076
39.2025013112317
39.1825801520272
39.1654209252045
39.1505126745939
39.1376636085923
39.1264885247484
39.1168553559483
39.1084656281511
39.1012363799662
39.0949291716694
39.0895001352758
39.0847527828634
39.0806742595651
39.0770966975372
39.0740331169384
39.071333442417
39.06903373024
39.066993255852
39.0652690380638
39.0637238001915
39.0624334336873
39.0612604462314
39.0602972021263
39.059404307993
39.0586874710806
39.0580057675689
39.0574741928253
39.0569520988445
39.0565595141402
39.0561583862386
39.0558697269989
39.0555606862415
39.0553493050346
39.0551107842954
39.0549564737852
39.0547722786409
39.0546598307713
39.0545176672645
39.0544357788534
39.0543261641176
39.0542665676203
39.0541820989426
39.0541388127233
39.0540736759347
39.0540424009345
39.0539920417705
39.0539696598947
39.0539305812725
39.0539147605175
39.0538843281592
39.053873319303
39.0538495064085
39.0538420668943
39.0538232566677
39.0538185207256
39.0538034696742
39.05380075798
39.0537885825083
39.0537873436979
39.0537773650901
39.0537773326459
39.0537682808706
22.9227878528422
21.8543914135972
21.6492296156588
22.2042362916273
23.5892993129782
25.7539102672701
28.5851117046344
31.7294415995773
34.8319833088459
37.551435505569
39.6539062093397
41.0871393149348
41.9740024068316
42.6441755137366
43.1041337313846
43.3317294770173
43.412180752978
43.3674787520817
43.2582799154193
43.0989608400395
42.9245060202811
42.7397911452014
42.562994382034
42.393540798253
42.2400126498366
42.0995939288175
41.9758322539448
41.8654547987678
41.7695737594986
41.6852514667778
41.6125365881531
41.5490710843319
41.4945120506593
41.4470727329987
41.4063210094924
41.3709423083808
41.3405365041119
41.3141473126492
41.2914460439106
41.2717352447382
41.2547633107196
41.2400144362587
41.2273071600529
41.2162511056118
41.2067245655856
41.1984230092974
41.1912738626912
41.1850316598824
41.1796629340776
41.1749633224978
41.1709304623437
41.16738774955
41.1643590652962
41.1616845586901
41.1594118597678
41.1573892522963
41.1556862736401
41.1541533825748
41.1528800195993
41.1517152003157
41.1507658328848
41.1498779670904
41.149172649277
41.1484936676877
41.1479717766314
41.1474507500739
41.1470663905434
41.146665177244
41.1463835402265
41.1460736715949
41.1458682714798
41.1456285057175
41.1454792507741
41.1452936376595
41.1451854117653
41.1450418267915
41.1449634211762
41.1448524760331
41.1447957287035
41.144710060878
41.1446690967135
41.144602896506
41.1445735211747
41.1445222179428
41.1445014038787
41.1444614852277
41.1444469657921
41.1444157896507
41.1444058647049
41.1443813926737
41.1443748675923
41.144355461701
41.1443515152181
41.1443359160816
41.1443338935689
41.1443212186219
41.1443205778197
41.1443101489688
41.1443106430573
41.1443011602909
23.11483197631
22.2669814298995
22.3310092702844
23.2250651881453
25.0377476300164
27.674411350947
30.9466260569018
34.4117654725266
37.6774485983113
40.415068100391
42.4290780542447
43.7292304242188
44.5285193599907
45.1133291803806
45.4992601265464
45.6667858527435
45.7007693148097
45.6209112874851
45.4860213043051
45.3081783171723
45.1208490096466
44.9273475662616
44.744866471429
44.5718874754203
44.4164126387323
44.2750919045247
44.151155985741
44.0410459456262
43.9457151569696
43.8620812705818
43.7901230246406
43.7274139085674
43.6735876540008
43.6268276089643
43.5867006668995
43.5518804054793
43.5219752456601
43.4960244771544
43.4737113055129
43.4543360037007
43.4376596218595
43.4231638193607
43.4106796365036
43.3998129490931
43.3904542472678
43.3822937420777
43.3752708525279
43.369133438381
43.3638598640798
43.3592379253988
43.3552770553733
43.3517916967775
43.3488178280077
43.3461853869299
43.343954797531
43.3419627192372
43.3402924443291
43.3387813634963
43.3375337341709
43.3363841308705
43.3354553095579
43.3345776989487
43.3338890125266
43.3332166126443
43.3327083359331
43.3321912131196
43.331818111902
43.3314188852776
43.3311466176736
43.3308374281707
43.3306398274539
43.3303999091848
43.330257118416
43.3300708782875
43.3299679635853
43.3298235301792
43.3297494480535
43.3296375874526
43.3295843378659
43.329497770505
43.3294596290915
43.3293925801943
43.3293654927051
43.3293133967427
43.3292944532079
43.3292537990667
43.3292408178756
43.3292089687657
43.3292003136918
43.3291752287679
43.3291697655156
43.3291497913422
43.3291467530456
43.3291306190589
43.3291293818988
43.3291162117922
43.3291162462178
43.329105366204
43.3291064483275
43.3290965354891
23.3416269457754
22.7453395244444
23.1179093814881
24.4019751698874
26.6977145508243
29.8434981441622
33.557274362707
37.3088627114309
40.6862465892946
43.3932365528392
45.2841331159041
46.435789423464
47.146559406788
47.6457066192933
47.9592694093994
48.0695745082217
48.0603456069793
47.9486040027897
47.7910502595007
47.5974057088509
47.3995645926242
47.1993173356266
47.0128777937829
46.8378389638184
46.6816435543123
46.5404551251589
46.41720780761
46.3080925208666
46.2139200471976
46.1314886254433
46.0607190298098
45.9991333015955
45.9463503226993
45.9005347338854
45.8612584606516
45.8271904957857
45.7979521207636
45.7725828875159
45.7507810926137
45.7318477294094
45.715558976852
45.7013958263416
45.6892038231962
45.6785861971631
45.6694473299956
45.6614727367594
45.65461531658
45.6486164353708
45.6434676227174
45.6389487415984
45.6350822487467
45.6316733247444
45.6287712232555
45.6261951659785
45.6240195474106
45.6220687177075
45.6204409275782
45.6189596568611
45.6177452229208
45.6166167809212
45.6157142193186
45.6148512604137
45.6141835969405
45.6135210134949
45.6130297380615
45.6125188848812
45.6121596647473
45.6117641430328
45.6115032820155
45.6111960128121
45.6110077953263
45.6107686175066
45.6106335220279
45.6104472961698
45.6103506474328
45.6102058264239
45.6101368066626
45.6100243613778
45.6099751810279
45.6098879505494
45.6098530743124
45.6097853439586
45.6097608884703
45.6097081153883
45.6096913118487
45.6096499999202
45.6096387687201
45.6096062973413
45.6095990790498
45.6095734123653
45.6095691439536
45.6095486174742
45.6095465952554
45.6095299310983
45.6095295672166
45.6095158998955
45.6095166805101
45.6095053436076
45.6095070706773
45.6094967240584
23.6075716478851
23.2973958019934
24.0232945604681
25.7542255618908
28.5899022959503
32.2743983766663
36.4170558685947
40.4098328077279
43.8434411244712
46.4731521816585
48.2119622096752
49.2058810113372
49.8287486335651
50.2437438324888
50.4876963730021
50.5441865085202
50.4952395222739
50.3549291435471
50.1776799234733
49.9708385318013
49.7647100331319
49.5596099263122
49.3707957635037
49.1950265974849
49.039213224439
48.8990778210813
48.7772812652871
48.6697973147377
48.5773117186485
48.4965260076365
48.4273154364902
48.3671656117902
48.3156891351502
48.2710416222621
48.2328059065813
48.1996525549784
48.1712198085112
48.1465513663018
48.1253635854001
48.1069605926544
48.0911359618679
48.0773714636528
48.0655289722087
48.0552098688166
48.0463339723122
48.0385824433541
48.0319230276416
48.0260906177938
48.0210911457207
48.0166963339112
48.0129428147413
48.0096261117016
48.00680987365
48.004302036818
48.002192098916
48.0002913676201
47.9987142221441
47.997269352889
47.9960943543185
47.9949919578639
47.9941204485291
47.9932757388149
47.9926327950602
47.9919826614049
47.9915112498039
47.9910085796802
47.9906654674436
47.9902750286906
47.9900273121061
47.9897229489566
47.9895454719897
47.9893077359753
47.9891813952754
47.988995681376
47.9889061232753
47.988761267925
47.9886979508134
47.9885851709681
47.988540556684
47.9884528389854
47.9884216138855
47.9883533238479
47.9883318018253
47.9882784330609
47.9882640067181
47.9882220890695
47.9882127951458
47.9881797330026
47.9881740998726
47.9881478681484
47.9881449136017
47.988123839929
47.9881229311117
47.9881057333399
47.9881063225998
47.9880921499975
47.9880937416173
47.9880819375708
47.9880843619914
47.9880735735206
23.9174595849559
23.9319818390801
25.0621394222088
27.3026556352191
30.7346649717145
34.9772941996122
39.5222288763477
43.7018194778708
47.1347126454025
49.6444699527481
51.2085329973427
52.0413294667861
52.5780481774738
52.9116230272055
53.0895062502663
53.0959632581465
53.0109209126152
52.8453317934017
52.6512552931721
52.4336799383181
52.2213358141428
52.0131202754638
51.8233692350332
51.6480620241665
51.4936101324137
51.35533656954
51.2356544662235
51.1303504860882
51.0400037092349
50.9612392021844
50.8938992998456
50.8354462793739
50.7854948930666
50.7421999946694
50.7051609519351
50.6730550328134
50.6455412661404
50.6216706399273
50.6011802899666
50.583379355699
50.5680808547459
50.5547684003125
50.5433218390286
50.5333412243547
50.5247632117174
50.5172647484913
50.5108296764028
50.5051862905462
50.5003560691033
50.4961022812831
50.4924768141907
50.4892650618451
50.4865461324418
50.4841160495143
50.4820805043569
50.4802369859416
50.4787171392719
50.4773139553621
50.4761834970664
50.4751110454992
50.4742745249993
50.473450920421
50.4728357471494
50.472200138707
50.4717509656767
50.4712579724318
50.4709328263404
50.4705485333128
50.4703154201512
50.4700147122866
50.4698491219038
50.469613351769
50.4694966651726
50.4693118281915
50.4692300638766
50.4690854281131
50.4690283617705
50.4689154230607
50.4688758018333
50.4687877170285
50.4687604761462
50.4686917063147
50.4686733792411
50.468619464776
50.4686076225815
50.4685651277072
50.468557935391
50.4685242963622
50.4685203793596
50.4684935860878
50.4684920512885
50.4684704255955
50.4684707175529
50.4684529753014
50.4684545899434
50.4684398985323
50.4684423601393
50.4684300745976
50.4684332444869
50.4684220021528
24.2765289982943
24.6589604169356
26.2511646874391
29.0694912080472
33.1512945053908
37.9588098283569
42.865651942657
47.1708781411149
50.5471141372338
52.8995929204205
54.2727268616107
54.9463242720264
55.3992561051342
55.6549278825099
55.770806981556
55.7312377957331
55.6137613391066
55.4261069605838
55.2179422675325
54.991939235679
54.7752919329832
54.5655414815821
54.3761466097462
54.2023598309814
54.0501298883514