/*--------------------------------*- C++ -*----------------------------------*\
| =========                 |                                                 |
| \\      /  F ield         | OpenFOAM: The Open Source CFD Toolbox           |
|  \\    /   O peration     | Version:  2.3.x                                 |
|   \\  /    A nd           | Web:      www.OpenFOAM.org                      |
|    \\/     M anipulation  |                                                 |
\*---------------------------------------------------------------------------*/
FoamFile
{
    version     2.0;
    format      ascii;
    class       volScalarField;
    location    "20000";
    object      p;
}
// * * * * * * * * * * * * * * * * * * * * * * * * * * * * * * * * * * * * * //

dimensions      [0 2 -2 0 0 0 0];

internalField   nonuniform List<scalar> 
10000
(
2.08181262494555
2.00073672295909
2.01711895934463
1.96286150664972
1.96371547072439
1.92498115255044
1.91651229655485
1.88647658282346
1.87288881184965
1.84754042970228
1.83121820642362
1.80833014966622
1.790494125528
1.76885686884135
1.75009645265717
1.72905577597363
1.70967159179617
1.6888890972124
1.66907105059429
1.64839183047303
1.6282832460923
1.60764908672726
1.58735946364024
1.56675413921561
1.54636112777836
1.52578188654886
1.50533574847811
1.4847816319451
1.46431187835115
1.4437803744964
1.42330252425809
1.40278961768428
1.3823106729239
1.36181175596626
1.34133405543637
1.32084476447389
1.30036845092899
1.27988517825616
1.25940962297635
1.23892970251635
1.21845421959798
1.1979758851283
1.17750000844669
1.15702221825748
1.1365457390683
1.1160679670343
1.09559087406043
1.07511291884711
1.05463531337595
1.03415714929134
1.01367917296642
0.993200849586713
0.972722637882554
0.952244221798334
0.931765881488083
0.911287428586905
0.890809032487605
0.870330579337039
0.849852170206082
0.829373735159402
0.80889533362839
0.78841692202042
0.767938534793413
0.747460144478216
0.726981770831407
0.70650339648877
0.68602503273075
0.665546668627796
0.645068310665098
0.624589952055379
0.604111596608236
0.583633240195577
0.563154885130749
0.542676528964111
0.522198173158459
0.501719816306293
0.48124145936765
0.46076310155474
0.440284743513103
0.419806384812063
0.399328025888907
0.378849666509756
0.358371306968949
0.337892947132836
0.317414587197767
0.29693622707951
0.276457866909686
0.255979506627073
0.235501146319695
0.215022785937711
0.194544425541055
0.174066065088322
0.153587704621175
0.133109344106274
0.11263098358806
0.0921526230082821
0.0716742624064201
0.0511959017571016
0.0307175411015971
0.0102391803810976
2.08182246572335
2.00074004191644
2.01711927921802
1.96286515381153
1.96371614262896
1.92498358648271
1.91651305615877
1.88647821071895
1.87288946114184
1.84754143802045
1.83121856449833
1.80833058438706
1.79049409322439
1.76885682356103
1.75009612490469
1.72905547426318
1.7096711763714
1.68888875800789
1.66907069640078
1.64839156534314
1.62828300344763
1.6076489199647
1.58735932469921
1.56675405468806
1.5463610643844
1.52578185746566
1.50533573163076
1.48478163405517
1.46431188538954
1.44378039021398
1.42330254016292
1.40278963618239
1.3823106891613
1.36181177172259
1.34133406814444
1.3208447755578
1.30036845916982
1.27988518480027
1.25940962733312
1.23892970557268
1.21845422120976
1.19797588594041
1.17750000844767
1.15702221788248
1.13654573833511
1.11606796621276
1.09559087315662
1.0751129180112
1.05463531259501
1.03415714863755
1.01367917241386
0.993200849162031
0.972722637555344
0.952244221572256
0.931765881334848
0.911287428501069
0.890809032446558
0.870330579333695
0.849852170224468
0.829373735194054
0.80889533366933
0.788416922064566
0.767938534835334
0.747460144516857
0.726981770864389
0.70650339651635
0.68602503275233
0.665546668644265
0.645068310676718
0.624589952063187
0.604111596612773
0.583633240197753
0.563154885131084
0.542676528963272
0.522198173156826
0.501719816304291
0.481241459365499
0.460763101552667
0.4402847435112
0.419806384810422
0.399328025887539
0.378849666508675
0.358371306968123
0.337892947132242
0.317414587197361
0.296936227079261
0.276457866909553
0.255979506627026
0.235501146319704
0.215022785937755
0.194544425541114
0.174066065088386
0.153587704621233
0.133109344106322
0.11263098358809
0.0921526230082987
0.0716742624064223
0.0511959017570916
0.0307175411015752
0.0102391803810908
2.08182644521224
2.00073564512349
2.01711815236443
1.96286474894832
1.96371557050273
1.92498337177424
1.91651279347295
1.88647811968479
1.87288935864002
1.84754137108887
1.83121844786315
1.80833042363118
1.79049387902618
1.7688565913692
1.75009589481945
1.72905528021448
1.70967101970986
1.688888649027
1.66907062112017
1.64839152299937
1.62828297999813
1.60764891355582
1.58735932602937
1.56675406303691
1.54636107449318
1.52578186945345
1.5053357427575
1.48478164479212
1.46431189440561
1.44378039806009
1.42330254626161
1.40278964104885
1.38231069260711
1.36181177418799
1.34133406962232
1.32084477639363
1.30036845941913
1.27988518471115
1.25940962696361
1.23892970508381
1.21845422063883
1.19797588538006
1.17750000791179
1.15702221741593
1.13654573793449
1.11606796589357
1.09559087290623
1.07511291782987
1.0546353124678
1.03415714855884
1.01367917237028
0.993200849147109
0.972722637558995
0.952244221589393
0.931765881358854
0.911287428528817
0.890809032474321
0.870330579360046
0.849852170247715
0.82937373521392
0.808895333685355
0.788416922077085
0.767938534844511
0.747460144523262
0.726981770868416
0.706503396518566
0.686025032753129
0.665546668644094
0.645068310675877
0.624589952061973
0.604111596611376
0.583633240196338
0.563154885129743
0.54267652896208
0.522198173155809
0.501719816303463
0.48124145936485
0.460763101552184
0.440284743510858
0.4198063848102
0.399328025887409
0.378849666508614
0.358371306968113
0.337892947132266
0.317414587197405
0.296936227079314
0.276457866909608
0.255979506627078
0.235501146319749
0.215022785937792
0.194544425541143
0.174066065088406
0.153587704621245
0.133109344106328
0.112630983588092
0.0921526230082956
0.0716742624064151
0.051195901757083
0.0307175411015665
0.010239180381098
2.08183508712984
2.0007294271961
2.01711826108234
1.96286420001205
1.96371585482714
1.92498319920222
1.9165131234566
1.88647813359576
1.87288963915559
1.84754135927256
1.83121849793763
1.80833020082781
1.79049364760958
1.76885620914545
1.75009555400758
1.72905492040646
1.709670742264
1.68888840690576
1.66907045426917
1.64839139283039
1.62828290078621
1.60764885826092
1.5873593003007
1.56675404967853
1.54636107630017
1.52578187601451
1.50533575581697
1.48478165826203
1.46431190958274
1.44378041155211
1.42330255914599
1.4027896515597
1.38231070167443
1.3618117810047
1.34133407498113
1.32084478000335
1.30036846191834
1.27988518604882
1.25940962761672
1.2389297050848
1.21845422031473
1.19797588477114
1.17750000722146
1.1570222166648
1.13654573723535
1.11606796524524
1.09559087236101
1.07511291737173
1.05463531211426
1.03415714828795
1.0136791721823
0.993200849020569
0.972722637487716
0.952244221555819
0.931765881356122
0.911287428544415
0.890809032503121
0.870330579394206
0.849852170284326
0.829373735248769
0.808895333717373
0.788416922104458
0.767938534867329
0.747460144541129
0.726981770882
0.706503396528144
0.686025032759521
0.665546668647789
0.645068310677604
0.624589952062185
0.604111596610614
0.583633240194928
0.563154885128029
0.542676528960251
0.522198173154047
0.50171981630185
0.48124145936346
0.460763101551026
0.440284743509942
0.419806384809499
0.399328025886905
0.378849666508271
0.358371306967903
0.337892947132155
0.317414587197369
0.296936227079326
0.276457866909652
0.255979506627136
0.235501146319813
0.215022785937852
0.194544425541196
0.174066065088448
0.153587704621275
0.133109344106346
0.1126309835881
0.0921526230082943
0.0716742624064066
0.0511959017570685
0.0307175411015497
0.0102391803811043
2.08184677445489
2.00072182312322
2.01711875646166
1.96286364364897
1.96371645844561
1.92498308825733
1.91651370083313
1.88647821607149
1.87289007162345
1.84754135069879
1.83121857148735
1.80832989620756
1.7904933464562
1.76885570836572
1.75009511713173
1.72905445403021
1.70967038463142
1.68888808960706
1.66907023494314
1.64839121829529
1.62828279359903
1.6076487815012
1.58735926354639
1.56675402924646
1.54636107694042
1.52578188319846
1.50533577235456
1.48478167554605
1.4643119295764
1.44378042940738
1.4233025764238
1.40278966570043
1.38231071399166
1.36181179030099
1.34133408236176
1.32084478501171
1.30036846543983
1.27988518797881
1.25940962861587
1.23892970517805
1.21845421995616
1.19797588400607
1.17750000633386
1.15702221567877
1.13654573631046
1.11606796437867
1.09559087162846
1.07511291675125
1.05463531163283
1.03415714791589
1.01367917192195
0.993200848842817
0.972722637385311
0.952244221504855
0.931765881347841
0.911287428561665
0.890809032539161
0.870330579438178
0.849852170332323
0.829373735294888
0.808895333760134
0.788416922141245
0.767938534898218
0.747460144565466
0.726981770900654
0.706503396541418
0.686025032768504
0.665546668653101
0.645068310680227
0.624589952062716
0.604111596609786
0.58363324019318
0.563154885125832
0.54267652895786
0.522198173151722
0.501719816299703
0.481241459361596
0.460763101549463
0.440284743508698
0.419806384808542
0.399328025886212
0.378849666507795
0.358371306967607
0.337892947131994
0.31741458719731
0.296936227079335
0.276457866909705
0.255979506627212
0.235501146319898
0.215022785937933
0.194544425541268
0.174066065088504
0.153587704621317
0.133109344106372
0.112630983588112
0.0921526230082927
0.0716742624063954
0.0511959017570476
0.0307175411015259
0.0102391803811121
2.08186057524966
2.00071304444937
2.01711933407317
1.9628630768854
1.96371717609151
1.92498300975597
1.91651438250976
1.88647832132487
1.87289054575123
1.84754129641154
1.83121859693406
1.80832949160374
1.79049295792062
1.76885510967145
1.75009460502522
1.7290539193264
1.70966997870525
1.6888877329555
1.66906999031655
1.64839102521951
1.62828267662117
1.60764869898633
1.5873592258679
1.56675400975737
1.54636108076929
1.52578189402588
1.50533579324526
1.48478169686354
1.4643119535125
1.44378045058056
1.42330259661484
1.40278968210082
1.38231072811962
1.36181180087099
1.34133409065508
1.32084479055999
1.30036846926619
1.27988518999399
1.25940962957836
1.23892970513064
1.21845421941575
1.1979758830291
1.17750000523998
1.15702221449534
1.13654573521476
1.11606796336548
1.09559087077968
1.07511291603962
1.05463531108581
1.0341571474979
1.01367917163352
0.993200848649691
0.972722637278014
0.952244221455656
0.931765881346217
0.911287428587974
0.890809032585584
0.870330579492445
0.849852170390055
0.829373735349555
0.80889533381019
0.788416922183893
0.767938534933678
0.747460144593142
0.726981770921633
0.706503396556145
0.686025032778283
0.665546668658693
0.645068310682779
0.624589952062932
0.604111596608513
0.58363324019092
0.563154885123119
0.542676528954982
0.522198173148965
0.501719816297187
0.481241459359436
0.460763101547668
0.440284743507282
0.419806384807465
0.399328025885443
0.378849666507274
0.358371306967292
0.33789294713183
0.317414587197262
0.296936227079361
0.276457866909778
0.255979506627308
0.235501146320001
0.215022785938028
0.194544425541352
0.17406606508857
0.153587704621365
0.133109344106399
0.112630983588124
0.0921526230082887
0.0716742624063799
0.0511959017570219
0.0307175411014977
0.0102391803811204
2.08187605598199
2.00070329370806
2.01711993025966
1.96286251351462
1.96371795807035
1.92498296137161
1.91651512421222
1.88647842798214
1.87289101308682
1.8475411686308
1.83121854305511
1.808328981722
1.79049248201286
1.768854430371
1.75009403577841
1.72905333980448
1.7096695441723
1.68888735612708
1.66906973492896
1.64839082615428
1.62828255868477
1.6076486177532
1.58735919176812
1.56675399448159
1.54636108949782
1.52578190949585
1.50533581862562
1.48478172202402
1.46431198079701
1.44378047440189
1.42330261892139
1.40278970002396
1.38231074333887
1.36181181211219
1.34133409933404
1.32084479624197
1.30036847307366
1.27988519186879
1.25940963034411
1.2389297048499
1.21845421864283
1.19797588182879
1.17750000394961
1.1570222131425
1.13654573398307
1.11606796224533
1.09559086985279
1.07511291527298
1.05463531050425
1.03415714706051
1.0136791713379
0.993200848457481
0.97272263717746
0.952244221416297
0.931765881356109
0.911287428625927
0.890809032643108
0.870330579556556
0.849852170456213
0.82937373541106
0.808895333865609
0.788416922230503
0.767938534971926
0.747460144622597
0.726981770943619
0.706503396571272
0.686025032788039
0.665546668663971
0.645068310684852
0.624589952062584
0.604111596606661
0.583633240188108
0.563154885119912
0.54267652895168
0.522198173145862
0.5017198162944
0.481241459357073
0.46076310154573
0.440284743505775
0.419806384806334
0.399328025884649
0.37884966650675
0.358371306966989
0.337892947131689
0.317414587197238
0.296936227079412
0.276457866909876
0.255979506627424
0.235501146320121
0.215022785938138
0.194544425541446
0.174066065088641
0.153587704621415
0.133109344106427
0.112630983588136
0.0921526230082831
0.0716742624063619
0.0511959017569929
0.0307175411014656
0.0102391803811307
2.08189295587664
2.00069277095121
2.01712053806951
1.96286198158629
1.96371879284869
1.92498295198538
1.9165159049162
1.88647852202997
1.87289144186284
1.84754095051825
1.83121839446975
1.80832837019084
1.79049192608939
1.76885368780703
1.75009342541629
1.72905273310112
1.70966909490314
1.6888869716543
1.66906947784244
1.64839062853036
1.62828244476481
1.6076485415773
1.58735916348418
1.56675398492654
1.54636110375038
1.52578192985635
1.50533584829073
1.48478175068008
1.46431201089602
1.44378050033673
1.42330264277306
1.40278971896718
1.38231075918414
1.36181182364847
1.34133410808279
1.32084480182361
1.30036847668396
1.27988519348657
1.25940963083672
1.23892970429887
1.21845421762395
1.19797588041272
1.17750000248059
1.15702221164637
1.13654573264331
1.11606796104696
1.09559086887389
1.0751129144748
1.05463530990756
1.03415714661962
1.01367917104714
0.993200848275162
0.972722637089682
0.952244221390635
0.931765881379493
0.911287428676227
0.890809032711438
0.870330579629638
0.849852170529541
0.82937373547802
0.808895333924982
0.788416922279772
0.767938535011796
0.747460144652858
0.726981770965814
0.706503396586188
0.686025032797323
0.665546668668628
0.645068310686249
0.624589952061567
0.604111596604194
0.583633240184755
0.563154885116253
0.542676528948014
0.522198173142482
0.501719816291411
0.481241459354573
0.460763101543707
0.440284743504224
0.419806384805191
0.399328025883864
0.378849666506248
0.358371306966714
0.337892947131577
0.317414587197245
0.29693622707949
0.276457866909998
0.255979506627559
0.235501146320256
0.215022785938256
0.194544425541545
0.174066065088715
0.153587704621465
0.133109344106454
0.112630983588145
0.092152623008273
0.0716742624063389
0.0511959017569584
0.0307175411014285
0.0102391803811408
2.08191104438027
2.0006816486954
2.01712115271697
1.96286150163567
1.96371966978664
1.92498298377753
1.91651670166875
1.88647858485367
1.87289180305946
1.84754062964663
1.83121814311614
1.80832766540095
1.79049130092849
1.76885289935117
1.75009278892688
1.72905211445513
1.70966864256738
1.68888658978242
1.66906922637525
1.64839043824862
1.62828233875002
1.60764847334019
1.5873591426484
1.56675398212211
1.54636112385046
1.52578195513188
1.50533588191714
1.48478178240986
1.46431204326021
1.44378052785589
1.42330266763411
1.40278973846813
1.38231077524089
1.36181183515108
1.34133411663293
1.32084480711084
1.30036847995441
1.27988519475825
1.25940963100203
1.23892970345622
1.21845421635695
1.19797587879515
1.17750000085456
1.15702221003413
1.13654573122299
1.11606795979738
1.09559086786688
1.07511291366599
1.05463530931264
1.03415714618874
1.0136791707712
0.99320084810991
0.972722637019293
0.952244221381406
0.931765881417536
0.911287428739006
0.890809032789929
0.870330579710623
0.849852170608721
0.829373735549073
0.808895333986983
0.788416922330505
0.767938535052251
0.747460144683073
0.726981770987543
0.706503396600388
0.686025032805771
0.665546668672426
0.64506831068683
0.62458995205982
0.604111596601101
0.583633240180892
0.563154885112194
0.542676528944051
0.522198173138894
0.501719816288287
0.481241459351998
0.460763101541654
0.440284743502673
0.419806384804067
0.399328025883112
0.378849666505785
0.358371306966481
0.337892947131504
0.317414587197287
0.296936227079598
0.276457866910142
0.255979506627713
0.235501146320404
0.215022785938384
0.194544425541651
0.174066065088792
0.153587704621516
0.133109344106478
0.11263098358815
0.09215262300826
0.0716742624063127
0.0511959017569206
0.0307175411013887
0.010239180381153
2.08193011222688
2.00067007460447
2.01712177037408
1.96286108651052
1.96372057785476
1.92498305196562
1.91651748924997
1.88647859518583
1.87289207222777
1.84754019906847
1.83121778765652
1.80832687936527
1.79049061942521
1.76885208157683
1.75009213985024
1.7290514967065
1.70966819676751
1.68888621868746
1.6690689862871
1.64839025984906
1.62828224356349
1.60764841512819
1.58735913035507
1.56675398667431
1.54636114985641
1.52578198515253
1.50533591908033
1.4847818167324
1.46431207733578
1.4437805564428
1.42330269300702
1.402789758107
1.38231079114559
1.36181184633812
1.34133412476195
1.32084481194787
1.30036848277579
1.27988519562039
1.25940963080632
1.23892970231468
1.21845421484959
1.19797587699593
1.17749999909616
1.15702220833352
1.13654572974883
1.1160679585217
1.09559086685334
1.07511291286486
1.05463530873393
1.03415714577906
1.01367917051806
0.993200847967216
0.972722636969578
0.952244221390318
0.931765881470674
0.911287428813891
0.890809032877636
0.87033057979829
0.849852170692395
0.829373735622894
0.80889533405037
0.788416922381623
0.767938535092377
0.747460144712514
0.726981771008243
0.706503396613465
0.686025032813105
0.665546668675195
0.645068310686509
0.624589952057315
0.604111596597402
0.583633240176564
0.563154885107797
0.542676528939857
0.522198173135163
0.501719816285091
0.481241459349401
0.460763101539613
0.440284743501158
0.419806384802994
0.399328025882415
0.378849666505376
0.358371306966297
0.337892947131475
0.317414587197364
0.296936227079735
0.276457866910309
0.25597950662788
0.235501146320562
0.215022785938517
0.194544425541757
0.174066065088867
0.153587704621564
0.133109344106499
0.112630983588152
0.0921526230082415
0.0716742624062813
0.0511959017568788
0.0307175411013447
0.0102391803811659
2.08194997501211
2.00065817660773
2.01712238960533
1.96286074374657
1.96372150634857
1.9249831464474
1.91651824179094
1.88647853246468
1.87289223157259
1.84753965796673
1.83121733270502
1.8083260265836
1.79048989543851
1.76885124957663
1.75009148989359
1.72905089020081
1.70966776499367
1.6888858644869
1.66906876175832
1.64839009649891
1.62828216113269
1.6076483682156
1.5873591271429
1.56675399876305
1.54636118156341
1.52578201956691
1.50533595926836
1.48478185312821
1.46431211258604
1.44378058561389
1.42330271845009
1.4027897775225
1.38231080659818
1.36181185698483
1.3413341323006
1.32084481622259
1.30036848507572
1.27988519603722
1.25940963023702
1.23892970088113
1.21845421311899
1.19797587503953
1.17749999723202
1.15702220657192
1.13654572824576
1.11606795724221
1.09559086585179
1.07511291208652
1.0546353081829
1.03415714539908
1.01367917029347
0.993200847850715
0.972722636942408
0.952244221418012
0.931765881538616
0.911287428900038
0.890809032973359
0.870330579891317
0.849852170779225
0.829373735698238
0.808895334114037
0.788416922432196
0.767938535131419
0.7474601447406
0.726981771027487
0.706503396625126
0.686025032819139
0.665546668676838
0.645068310685247
0.624589952054066
0.604111596593136
0.58363324017183
0.563154885103127
0.5426765289355
0.522198173131355
0.501719816281878
0.481241459346829
0.460763101537626
0.440284743499712
0.419806384801992
0.399328025881789
0.378849666505031
0.358371306966169
0.337892947131492
0.317414587197478
0.296936227079898
0.276457866910494
0.255979506628061
0.235501146320726
0.215022785938653
0.194544425541864
0.17406606508894
0.153587704621609
0.133109344106516
0.112630983588149
0.0921526230082194
0.0716742624062466
0.0511959017568334
0.0307175411012987
0.0102391803811785
2.08197047185777
2.00064606602876
2.0171230106485
1.96286047676799
1.96372244423539
1.92498325283117
1.91651893397086
1.88647837937071
1.87289227047964
1.84753901108907
1.83121678739945
1.80832512276847
1.79048914276193
1.76885041657776
1.75009084882173
1.72905030297806
1.70966735282618
1.6888855314961
1.66906855558218
1.64838995017539
1.62828209251692
1.60764833317896
1.5873591330743
1.56675401821273
1.54636121855281
1.52578205788569
1.50533600191855
1.48478189106437
1.46431214850011
1.44378061493072
1.42330274358348
1.40278979641552
1.38231082136225
1.3618118669226
1.34133413913014
1.32084481986363
1.30036848681517
1.27988519599751
1.25940962929971
1.23892969917408
1.21845421118951
1.19797587295364
1.17749999528944
1.15702220477535
1.1365457267363
1.11606795597809
1.09559086487748
1.07511291134285
1.05463530766813
1.03415714505474
1.01367917010108
0.993200847762369
0.972722636938398
0.952244221464218
0.931765881620472
0.911287428996236
0.890809033075712
0.87033057998834
0.849852170867945
0.829373735773984
0.808895334177029
0.788416922481455
0.76793853516878
0.747460144766896
0.726981771044971
0.706503396635183
0.686025032823771
0.665546668677317
0.645068310683059
0.624589952050114
0.604111596588362
0.583633240166757
0.563154885098251
0.542676528931044
0.522198173127524
0.501719816278697
0.481241459344322
0.460763101535721
0.440284743498353
0.419806384801078
0.399328025881241
0.378849666504756
0.358371306966099
0.337892947131555
0.317414587197626
0.296936227080086
0.276457866910696
0.255979506628251
0.235501146320894
0.215022785938788
0.194544425541968
0.174066065089009
0.153587704621647
0.133109344106527
0.112630983588142
0.0921526230081931
0.071674262406208
0.051195901756784
0.0307175411012493
0.0102391803811911
2.08199146231997
2.00063383950463
2.0171236343555
1.9628602853376
1.96372337934124
1.92498335335985
1.91651954238718
1.88647812345389
1.87289218503496
1.84753826758758
1.83121616387741
1.80832418369747
1.79048837438597
1.76884959382122
1.75009022453095
1.72904974107634
1.70966696423414
1.68888522255764
1.66906836942813
1.64838982190622
1.6282820380874
1.60764831005071
1.58735914784667
1.56675404458362
1.54636126025567
1.52578209953125
1.50533604644646
1.48478193001713
1.46431218460723
1.44378064400607
1.423302768089
1.40278981454639
1.38231083525939
1.36181187603276
1.34133414517536
1.32084482283399
1.30036848798237
1.27988519550958
1.25940962801379
1.23892969722044
1.21845420909017
1.19797587076753
1.17749999329527
1.1570222029677
1.13654572524026
1.11606795474539
1.09559086394262
1.07511291064278
1.05463530719565
1.0341571447498
1.01367916994277
0.993200847702766
0.972722636957165
0.95224422152797
0.931765881714915
0.911287429101034
0.890809033183241
0.870330580088019
0.849852170957372
0.829373735849137
0.808895334238543
0.788416922528786
0.767938535204008
0.747460144791094
0.726981771060504
0.706503396643534
0.686025032826968
0.665546668676652
0.645068310679987
0.624589952045524
0.604111596583154
0.583633240161418
0.563154885093238
0.542676528926549
0.522198173123721
0.501719816275587
0.481241459341912
0.460763101533923
0.4402847434971
0.419806384800262
0.399328025880779
0.378849666504553
0.358371306966085
0.337892947131661
0.317414587197806
0.296936227080295
0.27645786691091
0.255979506628448
0.235501146321065
0.215022785938921
0.194544425542068
0.174066065089072
0.153587704621682
0.133109344106533
0.112630983588128
0.092152623008162
0.0716742624061657
0.0511959017567335
0.0307175411011983
0.0102391803812059
2.08201282366716
2.0006215805089
2.01712426147452
1.96286016581475
1.96372429789744
1.92498342815617
1.91652004710053
1.88647775785869
1.87289197702923
1.84753743973828
1.83121547593817
1.80832322426455
1.79048760198912
1.76884879069383
1.75008962321038
1.7290492088417
1.7096666018645
1.68888493934115
1.66906820408417
1.64838971198695
1.6282819976932
1.60764829845864
1.58735917089469
1.5667540772539
1.54636130600978
1.52578214388066
1.50533609227198
1.48478196948943
1.46431222048513
1.44378067250656
1.42330279170753
1.40278983173013
1.38231084816222
1.36181188423941
1.34133415039719
1.32084482512437
1.30036848858688
1.27988519459635
1.2594096264085
1.23892969505256
1.21845420685248
1.19797586851054
1.17749999127499
1.15702220117041
1.13654572377466
1.11606795355717
1.09559086305657
1.0751129099927
1.0546353067693
1.03415714448622
1.01367916981906
0.993200847671426
0.97272263699758
0.952244221607803
0.93176588182034
0.911287429212855
0.890809033294482
0.870330580189077
0.849852171046434
0.829373735922841
0.808895334297922
0.788416922573712
0.767938535236779
0.747460144812994
0.726981771073982
0.706503396650151
0.686025032828751
0.665546668674893
0.645068310676107
0.624589952040374
0.604111596577588
0.583633240155884
0.563154885088153
0.542676528922069
0.52219817311999
0.501719816272583
0.481241459339622
0.460763101532247
0.440284743495962
0.419806384799546
0.399328025880404
0.378849666504419
0.358371306966126
0.337892947131807
0.317414587198014
0.296936227080522
0.276457866911134
0.255979506628647
0.235501146321234
0.215022785939052
0.194544425542163
0.174066065089129
0.153587704621709
0.133109344106534
0.112630983588111
0.0921526230081267
0.0716742624061201
0.0511959017566792
0.030717541101145
0.0102391803812191
2.08203444864741
2.00060936068398
2.01712489218737
1.96286011136994
1.96372518446096
1.92498345681397
1.91652043294714
1.88647728119988
1.87289165276415
1.84753654174375
1.83121473795567
1.80832225814137
1.79048683569482
1.76884801458636
1.75008904953424
1.72904870921361
1.70966626729596
1.68888468259661
1.66906805966114
1.6483896201623
1.62828197080059
1.60764829774221
1.58735920147604
1.56675411548742
1.5463613551065
1.52578219029989
1.50533613883984
1.48478200902348
1.46431225576457
1.44378070015281
1.423302814235
1.40278984783076
1.38231085998741
1.3618118915024
1.34133415478576
1.32084482674715
1.30036848865418
1.27988519329112
1.25940962451952
1.23892969270566
1.21845420450867
1.19797586621092
1.17749998925204
1.15702219940222
1.1365457223537
1.11606795242369
1.09559086222621
1.07511290939677
1.0546353063911
1.03415714426447
1.01367916972932
0.99320084766707
0.972722637057985
0.952244221701931
0.931765881934988
0.911287429330083
0.890809033408024
0.87033058029034
0.849852171134191
0.82937373599438
0.808895334354645
0.788416922615882
0.767938535266879
0.747460144832491
0.726981771085378
0.70650339665506
0.686025032829181
0.665546668672121
0.645068310671504
0.624589952034753
0.604111596571746
0.583633240150229
0.563154885083053
0.542676528917653
0.522198173116367
0.501719816269712
0.481241459337469
0.460763101530704
0.440284743494945
0.419806384798936
0.399328025880115
0.378849666504354
0.358371306966219
0.337892947131989
0.317414587198245
0.296936227080763
0.276457866911364
0.255979506628847
0.2355011463214
0.215022785939176
0.194544425542252
0.17406606508918
0.15358770462173
0.133109344106528
0.112630983588087
0.0921526230080876
0.0716742624060715
0.0511959017566239
0.0307175411010907
0.0102391803812331
2.08205624354629
2.00059724101708
2.01712552577852
1.96286011219107
1.96372602219062
1.92498342016928
1.91652069025939
1.88647669682536
1.87289122187716
1.847535588697
1.83121396404729
1.80832129739551
1.79048608404247
1.76884727113884
1.75008850686644
1.72904824397905
1.70966596125617
1.68888445236477
1.66906793576129
1.64838954577497
1.6282819566073
1.60764830704744
1.58735923874083
1.56675415848796
1.54636140682743
1.52578223816996
1.50533618563431
1.48478204820872
1.46431229013082
1.44378072671762
1.42330283551749
1.4027898627553
1.38231087068871
1.36181189781075
1.34133415835407
1.32084482773095
1.30036848822114
1.27988519163395
1.25940962238613
1.23892969021595
1.21845420209026
1.19797586389503
1.17749998724743
1.15702219767914
1.13654572098889
1.11606795135271
1.09559086145619
1.07511290885729
1.05463530606159
1.0341571440839
1.01367916967212
0.993200847687851
0.972722637136377
0.952244221808388
0.931765882057045
0.911287429451138
0.890809033522548
0.870330580390754
0.849852171219838
0.829373736063171
0.808895334408319
0.788416922655057
0.767938535294186
0.74746014484955
0.726981771094719
0.70650339665833
0.686025032828348
0.665546668668437
0.645068310666277
0.624589952028751
0.604111596565707
0.583633240144516
0.563154885077993
0.54267652891334
0.522198173112882
0.501719816266992
0.481241459335468
0.460763101529302
0.44028474349405
0.419806384798429
0.399328025879909
0.378849666504351
0.358371306966357
0.337892947132204
0.317414587198496
0.296936227081014
0.276457866911598
0.255979506629046
0.235501146321561
0.215022785939294
0.194544425542333
0.174066065089224
0.153587704621745
0.133109344106517
0.11263098358806
0.0921526230080454
0.0716742624060208
0.0511959017565663
0.0307175411010362
0.0102391803812463
2.08207812644612
2.00058527288214
2.01712616038624
1.96286015571867
1.96372679348436
1.92498330198214
1.91652081485829
1.88647601179499
1.8728906962936
1.84753459573382
1.83121316748286
1.80832035231989
1.79048535401456
1.76884656448978
1.75008799745799
1.72904781399321
1.70966568380437
1.6888842481496
1.66906783161522
1.6483894878854
1.62828195413416
1.60764832540247
1.58735928178638
1.56675420544139
1.54636146047221
1.52578228690586
1.50533623218885
1.4847820866861
1.46431232332292
1.44378075202266
1.42330285544568
1.40278987644769
1.38231088025046
1.3618119031766
1.34133416113252
1.32084482811603
1.3003684873321
1.27988518966871
1.25940962004898
1.23892968761904
1.21845419962714
1.19797586158679
1.17749998527948
1.15702219601441
1.13654571968921
1.11606795034972
1.0955908607493
1.07511290837502
1.05463530578015
1.03415714394297
1.01367916964543
0.993200847731546
0.972722637230556
0.952244221925134
0.931765882184723
0.911287429574518
0.89080903363685
0.870330580489396
0.849852171302701
0.829373736128756
0.80889533445866
0.788416922691088
0.767938535318656
0.747460144864199
0.726981771102079
0.706503396660058
0.686025032826362
0.665546668663949
0.645068310660528
0.624589952022456
0.604111596559547
0.583633240138807
0.563154885073018