/*--------------------------------*- C++ -*----------------------------------*\
| =========                 |                                                 |
| \\      /  F ield         | OpenFOAM: The Open Source CFD Toolbox           |
|  \\    /   O peration     | Version:  2.3.x                                 |
|   \\  /    A nd           | Web:      www.OpenFOAM.org                      |
|    \\/     M anipulation  |                                                 |
\*---------------------------------------------------------------------------*/
FoamFile
{
    version     2.0;
    format      ascii;
    class       surfaceScalarField;
    location    "20000";
    object      phi;
}
// * * * * * * * * * * * * * * * * * * * * * * * * * * * * * * * * * * * * * //

dimensions      [0 3 -1 0 0 0 0];

internalField   nonuniform List<scalar> 
19800
(
4.68699724592147e-08
-2.45395948588318e-09
4.78564650036381e-08
-9.86492544424536e-10
4.87389658155883e-08
-8.82500811946758e-10
4.95293068173356e-08
-7.90341001749934e-10
5.02576540352102e-08
-7.28347217877359e-10
5.0916573087719e-08
-6.58919052511096e-10
5.15185704340568e-08
-6.01997346340691e-10
5.20473587559919e-08
-5.28788321934044e-10
5.2505019352923e-08
-4.57660596928198e-10
5.28703790972869e-08
-3.65359744362064e-10
5.31421378991678e-08
-2.71758801877033e-10
5.33096179647692e-08
-1.67480065599721e-10
5.33852064000506e-08
-7.55884352832551e-11
5.33812899348892e-08
3.91646515940455e-12
5.33234272694726e-08
5.78626654143409e-11
5.32319306294494e-08
9.14966400251188e-11
5.31272619067373e-08
1.04668722708161e-10
5.30218000035714e-08
1.05461903165373e-10
5.29249745086652e-08
9.68254949071116e-11
5.28407466953489e-08
8.42278133149635e-11
5.2771362415281e-08
6.93842800680957e-11
5.27164062430605e-08
5.49561722172496e-11
5.26749944668639e-08
4.14117761950165e-11
5.26452018779212e-08
2.97925889435245e-11
5.26252450686784e-08
1.9956809242274e-11
5.26130639340317e-08
1.21811346459937e-11
5.26069479585709e-08
6.11597546274521e-12
5.26052260092837e-08
1.7219492861821e-12
5.26065989287082e-08
-1.37291942497186e-12
5.26099176304587e-08
-3.31870175199784e-12
5.26143467259256e-08
-4.42909546836809e-12
5.26192025637067e-08
-4.85583778442233e-12
5.26240344759528e-08
-4.83191224295398e-12
5.26285109696815e-08
-4.47649372362404e-12
5.2632455420138e-08
-3.94445045600194e-12
5.26357667384394e-08
-3.31131830031252e-12
5.26384334260668e-08
-2.66668762782155e-12
5.26404806053566e-08
-2.04717928771395e-12
5.26419755964333e-08
-1.49499107887836e-12
5.26429947267547e-08
-1.01913032182023e-12
5.26436267840196e-08
-6.32057263127952e-13
5.2643953914324e-08
-3.27130305148622e-13
5.26440550699208e-08
-1.01155597043769e-13
5.26439963923033e-08
5.86776176352894e-14
5.26438352255816e-08
1.61166721492174e-13
5.26436157073421e-08
2.19518240235911e-13
5.26433725342467e-08
2.43173094320104e-13
5.26431297335633e-08
2.42800683541985e-13
5.26429040560806e-08
2.2567748095653e-13
5.26427050487599e-08
1.99007322038495e-13
5.26425376920394e-08
1.6735672143251e-13
5.2642402853531e-08
1.34838508052773e-13
5.26422991362017e-08
1.03717329232639e-13
5.26422232908921e-08
7.58453096421025e-14
5.26421713801753e-08
5.1910716372305e-14
5.26421390167578e-08
3.23634179296047e-14
5.26421220107619e-08
1.70059949284205e-14
5.26421164312741e-08
5.57948688166613e-15
5.26421189155743e-08
-2.48430006011186e-15
5.26421266253468e-08
-7.70977235739235e-15
5.26421373349886e-08
-1.07096425566609e-14
5.26421493208395e-08
-1.19858515545099e-14
5.26421613573713e-08
-1.20365306784756e-14
5.26421726030959e-08
-1.12457248739675e-14
5.26421825582484e-08
-9.95515510053002e-15
5.26421909661087e-08
-8.40786170182966e-15
5.26421977666233e-08
-6.8005150052364e-15
5.26422030235159e-08
-5.25689320396435e-15
5.2642206888872e-08
-3.86535644594902e-15
5.26422095562422e-08
-2.66736967277274e-15
5.26422112396825e-08
-1.68344108573729e-15
5.26422121478733e-08
-9.0819060348229e-16
5.26422124749981e-08
-3.2712385770513e-16
5.2642212389709e-08
8.52892457277439e-17
5.26422120345715e-08
3.55137729336632e-16
5.26422115230327e-08
5.11537738566934e-16
5.26422109422962e-08
5.80736808832841e-16
5.26422103549565e-08
5.87338812653951e-16
5.26422098036546e-08
5.51303855016895e-16
5.26422093140856e-08
4.89568448210113e-16
5.26422088993583e-08
4.14727443947148e-16
5.26422085628292e-08
3.36528845004742e-16
5.26422083014338e-08
2.61394857504459e-16
5.26422081077462e-08
1.93686908557285e-16
5.26422079721553e-08
1.35590786143899e-16
5.26422078840599e-08
8.80943727253229e-17
5.26422078331004e-08
5.09593714452242e-17
5.26422078096467e-08
2.34528056093252e-17
5.26422078053463e-08
4.30115503625319e-18
5.26422078131862e-08
-7.8399774752789e-18
5.26422078276575e-08
-1.44714837402067e-17
5.2642207844535e-08
-1.68781991859137e-17
5.26422078608491e-08
-1.631442871777e-17
5.26422078745624e-08
-1.3752119049313e-17
5.26422078845939e-08
-9.99269863141055e-18
5.26422078903563e-08
-5.76283115309199e-18
5.26422078918682e-08
-1.5118365215457e-18
5.26422078893873e-08
2.44214644742724e-18
5.26422078838299e-08
5.59593937769038e-18
3.39954185887489e-18
1.32239353908438e-07
-9.42862332833728e-09
1.34906018519128e-07
-3.65315715510904e-09
1.37491633760942e-07
-3.46811605376125e-09
1.39635952233293e-07
-2.93465947410773e-09
1.41749037266051e-07
-2.84143225064722e-09
1.4354998700292e-07
-2.45986878938245e-09
1.4527925687014e-07
-2.33126721355922e-09
1.46728193536566e-07
-1.97772498836402e-09
1.48029158027487e-07
-1.75862508786227e-09
1.49024379280096e-07
-1.36058099697892e-09
1.49787224889157e-07
-1.03460441094003e-09
1.50233042248242e-07
-6.13297424668568e-10
1.50441594915395e-07
-2.84141102446489e-10
1.50417746895571e-07
2.77644849925703e-11
1.50255978135678e-07
2.19631425303441e-10
1.49995753578476e-07
3.51721197222044e-10
1.49705555374552e-07
3.94866926640556e-10
1.49410200621054e-07
4.00816656660215e-10
1.49142265178981e-07
3.64760936973626e-10
1.48907440694023e-07
3.19052298276315e-10
1.48715702447996e-07
2.61122526091069e-10
1.48562858905208e-07
2.07799715008307e-10
1.48448683051031e-07
1.55587630380189e-10
1.48366032565948e-07
1.12443074019227e-10
1.48311291035073e-07
7.46983401212087e-11
1.48277658126264e-07
4.58140434659761e-11
1.48261191721804e-07
2.25823799210169e-11
1.48256600876537e-07
6.31279454101589e-12
1.48260771595285e-07
-5.54363817147972e-12
1.48270124994259e-07
-1.26721007316431e-11
1.48282645564899e-07
-1.69496661049824e-11
1.48296204744583e-07
-1.84150174770756e-11
1.48309739606911e-07
-1.83667745784969e-11
1.48322194332712e-07
-1.69312195263004e-11
1.48333195344816e-07
-1.49454625643644e-11
1.48342382425918e-07
-1.24983993974987e-11
1.48349795617196e-07
-1.00798789116728e-11
1.48355457573242e-07
-7.70913534237211e-12
1.48359598985458e-07
-5.63640329248494e-12
1.48362403440458e-07
-3.82358531259969e-12
1.4836414364716e-07
-2.37226396823936e-12
1.48365030284678e-07
-1.2137678491447e-12
1.48365297925477e-07
-3.68796406992498e-13
1.48365119330463e-07
2.37272629345191e-13
1.48364662614353e-07
6.17882831888112e-13
1.48364043417905e-07
8.38714674867159e-13
1.48363363107225e-07
9.23483770236855e-13
1.48362683973151e-07
9.21934770786769e-13
1.4836205535618e-07
8.54294447877175e-13
1.48361500952788e-07
7.53410720569085e-13
1.48361036192884e-07
6.32116627115674e-13
1.48360661724133e-07
5.09307257907154e-13
1.48360374593439e-07
3.90848027992671e-13
1.48360164701316e-07
2.85737433826459e-13
1.48360021671811e-07
1.94940226414867e-13
1.483599326836e-07
1.21351631171409e-13
1.48359886454574e-07
6.32350233537346e-14
1.48359871703515e-07
2.03305416599848e-14
1.48359879326123e-07
-1.01069042700073e-14
1.48359901242253e-07
-2.96259061016427e-14
1.4835993143043e-07
-4.0897820706598e-14
1.48359964998725e-07
-4.55541411470457e-14
1.48359998651636e-07
-4.56894439476791e-14
1.48360029998575e-07
-4.25926601954098e-14
1.48360057723952e-07
-3.76805293498499e-14
1.48360081087609e-07
-3.17715215415792e-14
1.48360099969716e-07
-2.56826284773486e-14
1.48360114532743e-07
-1.9819919561422e-14
1.48360125228183e-07
-1.4560794616516e-14
1.48360132584823e-07
-1.00240030773285e-14
1.48360137214204e-07
-6.31282429610241e-15
1.48360139689758e-07
-3.38374481470213e-15
1.48360140560049e-07
-1.19741272503681e-15
1.48360140288735e-07
3.56604943128088e-16
1.48360139276468e-07
1.36741083718737e-15
1.48360137834586e-07
1.95342420455078e-15
1.48360136207325e-07
2.20799979809496e-15
1.4836013456559e-07
2.2290748943728e-15
1.48360133028573e-07
2.08832084134772e-15
1.48360131665466e-07
1.85267525568958e-15
1.4836013051291e-07
1.56728210031791e-15
1.48360129578724e-07
1.27071806938137e-15
1.48360128854472e-07
9.85645235607529e-16
1.48360128318562e-07
7.29595342731216e-16
1.48360127944373e-07
5.09778238352551e-16
1.4836012770188e-07
3.30584207255728e-16
1.48360127562431e-07
1.90410791942701e-16
1.48360127498948e-07
8.69374592425595e-17
1.48360127488392e-07
1.48575257055599e-17
1.48360127511106e-07
-3.05546089569787e-17
1.48360127551971e-07
-5.53353317221562e-17
1.4836012759915e-07
-6.40600215031222e-17
1.48360127644563e-07
-6.17294035437902e-17
1.48360127682421e-07
-5.1701133345923e-17
1.48360127710098e-07
-3.75793183645501e-17
1.48360127725678e-07
-2.13431151463869e-17
1.48360127729421e-07
-5.2532914158154e-18
1.48360127721907e-07
9.86481870839546e-18
1.48360127706032e-07
2.15617988168454e-17
1.31535152836733e-17
2.05946535286851e-07
-2.02982047778571e-08
2.10055965453805e-07
-7.76258732207485e-09
2.14100955642754e-07
-7.51310624273175e-09
2.17401648528531e-07
-6.235352359858e-09
2.20695378644104e-07
-6.13516236622538e-09
2.23462274179592e-07
-5.22676432484948e-09
2.26140026669235e-07
-5.00901970321336e-09
2.28349673424412e-07
-4.18737174353328e-09
2.3033746300784e-07
-3.74641467129649e-09
2.3182707145936e-07
-2.85018944848601e-09
2.32962702825406e-07
-2.17023577699639e-09
2.33602432718137e-07
-1.25302731738321e-09
2.33891198983306e-07
-5.72907367612825e-10
2.33830121102295e-07
8.88423659933873e-11
2.33571799173239e-07
4.77953354352273e-10
2.33168649776893e-07
7.54870593563577e-10
2.32726599943997e-07
8.36916759539802e-10
2.32278140144426e-07
8.49276456228049e-10
2.31873757638852e-07
7.69143442546601e-10
2.31519480220814e-07
6.73329716296283e-10
2.31231377661773e-07
5.49225085124082e-10
2.31001793197317e-07
4.37384179455708e-10
2.30831070531732e-07
3.26310295971273e-10
2.30707673568555e-07
2.35840037195175e-10
2.30626570338497e-07
1.55801570173192e-10
2.30577048492008e-07
9.53358899757133e-11
2.30553423914365e-07
4.62069575509165e-11
2.30547450094474e-07
1.22866144460339e-11
2.30554604314356e-07
-1.26978580676638e-11
2.30569346188317e-07
-2.74139746944042e-11
2.30588758129985e-07
-3.63616077763369e-11
2.30609558642642e-07
-3.92155301259157e-11
2.30630232785098e-07
-3.90409170455861e-11
2.30649157089916e-07
-3.5855524367942e-11
2.30665830653072e-07
-3.16190257101661e-11
2.30679698071737e-07
-2.63658180533591e-11
2.30690861780681e-07
-2.12435878589186e-11
2.30699351058479e-07
-1.61984131486899e-11
2.30705540133737e-07
-1.18254785647189e-11
2.30709702854038e-07
-7.9863056189473e-12
2.30712265585487e-07
-4.93499540527272e-12
2.30713543059036e-07
-2.49124137861484e-12
2.30713896733082e-07
-7.22470451438326e-13
2.30713584025037e-07
5.49980677301531e-13
2.30712861938613e-07
1.33996925765011e-12
2.30711901836433e-07
1.79881685616238e-12
2.30710857645132e-07
1.96767507208966e-12
2.3070982067251e-07
1.95890738613285e-12
2.30708865353681e-07
1.80961328833728e-12
2.30708025389708e-07
1.59337470653135e-12
2.30707323753754e-07
1.33375258049202e-12
2.30706759998217e-07
1.07306280788834e-12
2.30706329382355e-07
8.21463891872001e-13
2.30706015775932e-07
5.99343850343211e-13
2.30705803364639e-07
4.07351514108818e-13
2.30705672309415e-07
2.52406850630303e-13
2.30705605552193e-07
1.29992233453753e-13
2.30705585840078e-07
4.00426714061831e-14
2.3070559948577e-07
-2.37525983420984e-14
2.30705634228469e-07
-6.43686143794102e-14
2.30705681069403e-07
-8.77387611172332e-14
2.30705732630654e-07
-9.71153951241313e-14
2.3070578402993e-07
-9.70887104567414e-14
2.30705831692109e-07
-9.02548461348096e-14
2.30705873708615e-07
-7.96970466930159e-14
2.30705908997226e-07
-6.70601352635274e-14
2.30705937432927e-07
-5.41183259685904e-14
2.30705959286951e-07
-4.16739431911368e-14
2.30705975276078e-07
-3.054992590383e-14
2.30705986213425e-07
-2.09613541387039e-14
2.30705993041122e-07
-1.31405237393994e-14
2.30705996630627e-07
-6.97325719828586e-15
2.30705997817891e-07
-2.3846737129773e-15
2.30705997302916e-07
8.7158430593843e-16
2.30705995692284e-07
2.97804211453007e-15
2.30705993453173e-07
4.19253396926934e-15
2.3070599095277e-07
4.70839963197091e-15
2.30705988445341e-07
4.73649509457749e-15
2.30705986108406e-07
4.4252542370198e-15
2.30705984043057e-07
3.9180200025877e-15
2.30705982302412e-07
3.30792939771465e-15
2.30705980895777e-07
2.67735665281021e-15
2.30705979808867e-07
2.07255769832538e-15
2.30705979007502e-07
1.53095932449462e-15
2.30705978450621e-07
1.06665922078353e-15
2.30705978092051e-07
6.89151366369035e-16
2.30705977888192e-07
3.94274064174959e-16
2.30705977797823e-07
1.77304855850825e-16
2.30705977786146e-07
2.65320268409455e-17
2.30705977823447e-07
-6.78574725270452e-17
2.30705977887064e-07
-1.18952214257369e-16
2.30705977959216e-07
-1.36213842116511e-16
2.30705978027918e-07
-1.30429290893469e-16
2.30705978084524e-07
-1.08477754944797e-16
2.30705978125356e-07
-7.82389930449611e-17
2.30705978147532e-07
-4.35215172812136e-17
2.30705978151639e-07
-9.35998330572287e-18
2.30705978138591e-07
2.27439898053627e-17
2.3070597811299e-07
4.73324142841058e-17
2.86796981039738e-17
2.69192848815916e-07
-3.44826327130848e-08
2.74560090029947e-07
-1.31298285361352e-08
2.79813298397845e-07
-1.27663146106283e-08
2.8410990722156e-07
-1.05319611835922e-08
2.88376717057452e-07
-1.04019722021191e-08
2.91956229790706e-07
-8.80627705810876e-09
2.95399131740679e-07
-8.45192165316828e-09
2.982187954623e-07
-7.00703546516772e-09
3.00726818719983e-07
-6.25443792896501e-09
3.02572390692145e-07
-4.69576142059798e-09
3.03949972719913e-07
-3.54781780475873e-09
3.04694076350942e-07
-1.99713094842446e-09
3.05002910088559e-07
-8.8174110519331e-10
3.04885702332154e-07
2.06050122363672e-10
3.0453580726465e-07
8.27848421859861e-10
3.04016065082773e-07
1.27461277543587e-09
3.03455619272881e-07
1.39736256943496e-09
3.02891928035961e-07
1.41296769314982e-09
3.0238621531852e-07
1.27485615996653e-09
3.01944673942311e-07
1.11487109252639e-09
3.01586765476109e-07
9.07133551323328e-10
3.01302420730025e-07
7.21728925543338e-10
3.01091858869219e-07
5.36872156794759e-10
3.0094042748216e-07
3.87271424236769e-10
3.00841741236479e-07
2.54487815875249e-10
3.00782284700252e-07
1.54792426187063e-10
3.00754913630455e-07
7.35780273578027e-11
3.00749266238126e-07
1.79340067846226e-11
3.0075969758087e-07
-2.31292008225315e-11
3.00779285462896e-07
-4.70018567235758e-11
3.00804419333141e-07
-6.1495478023947e-11
3.00831027274642e-07
-6.58234716087714e-11
3.00857263321457e-07
-6.52769638745464e-11
3.00881137126026e-07
-5.9729328954219e-11
3.00902067106913e-07
-5.25490066176795e-11
3.00919393420495e-07
-4.36921316491869e-11
3.00933277678628e-07
-3.51278459671773e-11
3.00943780577122e-07
-2.67013116089464e-11
3.0095139096742e-07
-1.94358688681415e-11
3.00956464775916e-07
-1.30601140981752e-11
3.00959545659474e-07
-8.01587898651864e-12
3.0096103265079e-07
-3.97823269773557e-12
3.00961381191549e-07
-1.07101121547619e-12
3.0096091386022e-07
1.01731201780081e-12
3.00959951834694e-07
2.30199476579914e-12
3.00958707630841e-07
3.04302069763131e-12
3.00957371746175e-07
3.30355973076184e-12
3.0095605588787e-07
3.27476568585325e-12
3.00954850894551e-07
3.0146066292434e-12
3.00953796677209e-07
2.6475920418339e-12
3.00952920122566e-07
2.21030720711333e-12
3.00952219037869e-07
1.77414750038557e-12
3.00951686252433e-07
1.35424930968364e-12
3.00951300591256e-07
9.85005040466311e-13
3.00951041586584e-07
6.66356178630785e-13
3.00950883929172e-07
4.10064270598478e-13
3.00950805999543e-07
2.07921863407816e-13
3.00950786055213e-07
5.99869901197243e-14
3.00950806944593e-07
-4.46419883613087e-14
3.00950853365738e-07
-1.10789753283578e-13
3.00950914147434e-07
-1.48520460113198e-13
3.00950980163569e-07
-1.63131526135161e-13
3.00951045426159e-07
-1.6235130433973e-13
3.00951105577033e-07
-1.50405724564132e-13
3.00951158337806e-07
-1.32457813366613e-13
3.00951202448079e-07
-1.11170403654431e-13
3.00951237831805e-07
-8.95020509018293e-14
3.0095126489138e-07
-6.87335145516439e-14
3.00951284572995e-07
-5.02315479165556e-14
3.00951297929065e-07
-3.43174153158438e-14
3.00951306162808e-07
-2.13742611202599e-14
3.00951310379105e-07
-1.11895470388263e-14
3.0095131163148e-07
-3.63705514001999e-15
3.00951310797967e-07
1.70509944582762e-15
3.00951308636433e-07
5.13957464212624e-15
3.00951305727351e-07
7.10162462770881e-15
3.00951302524814e-07
7.91092818228263e-15
3.00951299340955e-07
7.92035159484365e-15
3.0095129639204e-07
7.37417745105257e-15
3.00951293799056e-07
6.51100112907752e-15
3.00951291623716e-07
5.48326253360353e-15
3.00951289873629e-07
4.42744367829629e-15
3.00951288527733e-07
3.4184528786577e-15
3.00951287540801e-07
2.51789027893903e-15
3.009512868597e-07
1.74775483827488e-15
3.00951286425453e-07
1.12340040595115e-15
3.00951286182795e-07
6.3692887407826e-16
3.0095128607978e-07
2.80311807003025e-16
3.00951286072788e-07
3.35330170925279e-17
3.00951286124752e-07
-1.19820452770286e-16
3.00951286207566e-07
-2.01765715603442e-16
3.00951286299274e-07
-2.27930445020931e-16
3.00951286385208e-07
-2.16367415170603e-16
3.00951286454865e-07
-1.78313156797291e-16
3.00951286503954e-07
-1.27150771899044e-16
3.00951286529117e-07
-6.86843598034715e-17
3.00951286531324e-07
-1.15669548935805e-17
3.00951286511894e-07
4.19961311520266e-17
3.00951286476802e-07
8.26003158590127e-17
4.96427765410748e-17
3.23087042217547e-07
-5.14655907746708e-08
3.29532845868855e-07
-1.95756321874546e-08
3.35775861179086e-07
-1.90093299208856e-08
3.40912783663317e-07
-1.56688836678115e-08
3.45967528945143e-07
-1.54567174839709e-08
3.50209936692155e-07
-1.30486848051643e-08
3.54247422395821e-07
-1.24894073568528e-08
3.57525974301267e-07
-1.02855873706594e-08
3.603919033888e-07
-9.12036701651392e-09
3.62452859348956e-07
-6.75671738075049e-09
3.63944872626608e-07
-5.03983108243321e-09
3.64705858046785e-07
-2.7581163685624e-09
3.64979644649514e-07
-1.15552770788529e-09
3.64789823840966e-07
3.95870930938641e-10
3.6435539690193e-07
1.26227536089569e-09
3.63745015345538e-07
1.88499433188758e-09
3.63098984839715e-07
2.04339307525258e-09
3.62456318228416e-07
2.05563430445465e-09
3.61883072070575e-07
1.84810231783819e-09
3.6138494028876e-07
1.61300287432204e-09
3.60982691156746e-07
1.3093826833107e-09
3.60664519647248e-07
1.03990043507434e-09
3.60430127886983e-07
7.71263917068179e-10
3.60262761364608e-07
5.54637946641507e-10
3.60154899539596e-07
3.62349640866798e-10
3.60091158657015e-07
2.18533308779753e-10
3.60063300148298e-07
1.01436536078365e-10
3.60059576110198e-07
2.16580448237593e-11
3.60073553117465e-07
-3.71062081043344e-11
3.60097436705895e-07
-7.08854451904946e-11
3.60127159529167e-07
-9.12183012709957e-11
3.60158179208495e-07
-9.68431509671204e-11
3.60188456432409e-07
-9.55541877634715e-11
3.60215809565608e-07
-8.70824621322497e-11
3.602396338645e-07
-7.63733055372048e-11
3.60259241543351e-07
-6.32998105016343e-11
3.60274857753984e-07
-5.0744056609194e-11
3.60286591836868e-07
-3.84353944732842e-11
3.60295023884972e-07
-2.7867916984266e-11
3.60300580023675e-07
-1.86162528274638e-11
3.60303888902094e-07
-1.13247574024912e-11
3.60305412469871e-07
-5.50180048831821e-12
3.60305670178821e-07
-1.32872016370791e-12
3.60305029645119e-07
1.65784570135391e-12
3.60303853472935e-07
3.47816694146969e-12
3.60302380504292e-07
4.51598933125562e-12
3.60300823089146e-07
4.86097485357542e-12
3.60299304594075e-07
4.79326076692276e-12
3.60297924322594e-07
4.39487812612394e-12
3.6029672448941e-07
3.84742520325555e-12
3.60295732667474e-07
3.20212915812765e-12
3.60294944145704e-07
2.56266928470023e-12
3.60294348867933e-07
1.94952709205021e-12
3.60293921474572e-07
1.4123983919943e-12
3.60293637696579e-07
9.50134175162446e-13
3.60293468188323e-07
5.7957250288168e-13
3.60293387993317e-07
2.88116870284153e-13
3.60293372270379e-07
7.57099253587116e-14
3.60293401512212e-07
-7.38838056820869e-14
3.60293458447496e-07
-1.67725026969406e-13
3.60293530522901e-07
-2.20595839483488e-13
3.60293607557957e-07
-2.4016657261656e-13
3.60293682930861e-07
-2.37724198092979e-13
3.60293751876129e-07
-2.19351008616455e-13
3.60293811965026e-07
-1.92546710645283e-13
3.60293861909828e-07
-1.611152055847e-13
3.60293901738115e-07
-1.29330347945721e-13
3.60293932000716e-07
-9.89961324790855e-14
3.60293953840219e-07
-7.20710506481018e-14
3.60293968502449e-07
-4.89796531912482e-14
3.60293977385816e-07
-3.02576338782771e-14
3.60293981765027e-07
-1.55687723388764e-14
3.60293982844736e-07
-4.71676714225191e-15
3.60293981624192e-07
2.92565975224625e-15
3.60293978960477e-07
7.80330757119543e-15
3.60293975506009e-07
1.05560850604e-14
3.60293971767515e-07
1.16494308411189e-14
3.60293968090306e-07
1.15975434390367e-14
3.60293964710857e-07
1.07536321940209e-14
3.60293961758452e-07
9.46340896889117e-15
3.60293959296017e-07
7.94569639837805e-15
3.60293957326386e-07
6.39707876892107e-15
3.60293955820971e-07
4.92385632388124e-15
3.60293954724963e-07
3.61389549330226e-15
3.60293953975523e-07
2.49720694308086e-15
3.60293953504074e-07
1.59484735816346e-15
3.60293953246897e-07
8.94110550893623e-16
3.60293953144586e-07
3.82621015594505e-16
3.60293953147562e-07
3.0548702141836e-17
3.60293953213987e-07
-1.86254168837908e-16
3.60293953312343e-07
-3.00125823472576e-16
3.60293953418177e-07
-3.33770908780906e-16
3.60293953515336e-07
-3.13526911324439e-16
3.6029395359238e-07
-2.55609552679912e-16
3.60293953644883e-07
-1.79400277211485e-16
3.60293953669421e-07
-9.32247188867681e-17
3.60293953667431e-07
-9.57417714764886e-18
3.60293953640681e-07
6.84937384342535e-17
3.60293953596234e-07
1.27299746222667e-16
7.56350240974926e-17
3.68629627851077e-07
-7.07867162590847e-08
3.75985042624037e-07
-2.69310469604864e-08
3.83026101528564e-07
-2.60503888254353e-08
3.88856225219151e-07
-2.14990073584585e-08
3.94532441076025e-07
-2.11329333408156e-08
3.99294311943568e-07
-1.78105556726978e-08
4.03766947192471e-07
-1.69620426057206e-08
4.07356218155905e-07
-1.38748583340831e-08
4.10424438864987e-07
-1.21885877256227e-08
4.12565573442277e-07
-8.89785195807035e-09
4.1405552302456e-07
-6.52978066472075e-09
4.14756812510427e-07
-3.45940585441087e-09
4.14951423590475e-07
-1.35013878800374e-09
4.14678843958006e-07
6.6845056344142e-10
4.14170098740897e-07
1.77102057798984e-09
4.13494521844253e-07
2.56057122852778e-09
4.12793794952549e-07
2.74411996701806e-09
4.12105319124908e-07
2.74411013208193e-09
4.11495324799488e-07
2.45809664322473e-09
4.10968281119834e-07
2.14004655397881e-09
4.10544680600637e-07
1.73298320248697e-09
4.10211462827405e-07
1.37311820830581e-09
4.09967605336403e-07
1.01512140806749e-09
4.09795077562118e-07
7.27165720932798e-10
4.0968550522242e-07
4.71921980589476e-10
4.09622427024486e-07
2.81611506700694e-10
4.09596892744134e-07
1.2697081642347e-10
4.0959639656783e-07
2.21542211459595e-11
4.09614050286686e-07
-5.47599269539981e-11
4.09641627472611e-07
-9.84626311367203e-11
4.09674835369833e-07
-1.24426198477342e-10
4.09708936939612e-07
-1.30944720705385e-10
4.09741833163703e-07
-1.28450411871038e-10
4.09771300024863e-07
-1.16549323298119e-10
4.0979676561928e-07
-1.0183889996442e-10
4.09817576187177e-07
-8.41103783685941e-11
4.09834025832544e-07
-6.71937019269787e-11
4.0984628312318e-07
-5.06926850855964e-11
4.0985499873631e-07
-3.65835301254673e-11
4.09860655044602e-07
-2.42725610930104e-11
4.0986393672377e-07
-1.46064365533845e-11
4.09865347412409e-07
-6.91248914953222e-12
4.09865443753445e-07
-1.4250611829697e-12
4.09864619223296e-07
2.48237584141837e-12
4.09863257557147e-07
4.83983309827727e-12
4.09861610056461e-07
6.16349002272735e-12
4.09859897937601e-07
6.57309370292386e-12
4.09858248174746e-07
6.44302361238514e-12
4.09856761652107e-07
5.88140073128137e-12
4.09855479344448e-07
5.12973283814157e-12
4.09854426828823e-07
4.25464478182147e-12
4.09853596211929e-07
3.39328615169091e-12
4.09852974310613e-07
2.57142841560581e-12
4.09852532396568e-07
1.85431242407689e-12
4.09852243280769e-07
1.23925001417475e-12
4.09852074902304e-07
7.47950946064715e-13
4.09852000138539e-07
3.6288060588165e-13
4.09851992317852e-07
8.35306102131048e-14
4.09852030611875e-07
-1.12177857408254e-13
4.09852096745684e-07
-2.33858853650137e-13
4.098521775095e-07
-3.01359675459738e-13
4.09852262288091e-07
-3.24945177681901e-13
4.09852344253863e-07
-3.19689985254913e-13
4.09852418564326e-07
-2.93661484829513e-13
4.09852482835791e-07
-2.56818207191009e-13
4.09852535880968e-07
-2.14160379577184e-13
4.09852577876518e-07
-1.71325866642891e-13
4.09852609530668e-07
-1.30650287439755e-13
4.09852632149264e-07
-9.468964192276e-14
4.09852647125598e-07
-6.3955973108612e-14
4.0985265599159e-07
-3.91236438990566e-14
4.09852660131665e-07
-1.97088550824671e-14
4.09852660840567e-07
-5.42566212984261e-15
4.09852659186195e-07
4.58003140244505e-15
4.09852656077461e-07
1.09120293826925e-14
4.09852652200917e-07
1.44326459285351e-14
4.09852648085117e-07
1.57652330329846e-14
4.09852644086299e-07
1.55963769234013e-14
4.09852640444751e-07
1.43951931592342e-14
4.09852637287812e-07
1.26203503395947e-14
4.09852634673317e-07
1.05602003100343e-14
4.09852632596793e-07
8.47359397353098e-15
4.09852631021751e-07
6.49889399615959e-15
4.09852629885319e-07
4.75032592096174e-15
4.09852629117303e-07
3.26522299739739e-15
4.09852628642535e-07
2.06959881698698e-15
4.0985262839187e-07
1.14478215499107e-15
4.09852628301453e-07
4.73043669160395e-16
4.09852628318395e-07
1.36161898399243e-17
4.09852628398435e-07
-2.66291234018192e-16
4.09852628508494e-07
-4.10185892629534e-16
4.0985262862313e-07
-4.48414159660479e-16
4.0985262872578e-07
-4.16176853556743e-16
4.09852628804886e-07
-3.34934938536811e-16
4.09852628856308e-07
-2.30604200680497e-16
4.09852628876908e-07
-1.1382646938003e-16
4.09852628868645e-07
-1.31094407624466e-18
4.09852628833761e-07
1.0315601038217e-16
4.09852628780151e-07
1.81130774304865e-16
1.06420756813745e-16
4.06723765234172e-07
-9.20354138012513e-08
4.14831995395458e-07
-3.50392771217867e-08
4.22502002514482e-07
-3.37203959444461e-08
4.28888112738303e-07
-2.78851175822229e-08
4.35035397432394e-07
-2.7280218034909e-08
4.40180517636997e-07
-2.29556758772989e-08
4.44938805474772e-07
-2.17203304435994e-08
4.48695788212766e-07
-1.76318410721572e-08
4.51820215507813e-07
-1.53130150207285e-08
4.53918068016571e-07
-1.0995704466754e-08
4.55306784501188e-07
-7.91849714929624e-09
4.55888398836129e-07
-4.04102018937171e-09
4.55973761299395e-07
-1.4355012513126e-09
4.55616051011294e-07
1.02616085152357e-09
4.55046304460147e-07
2.34076712907775e-09
4.54329883213823e-07
3.27699247482655e-09
4.53602392350524e-07
3.47161083024492e-09
4.52897152711747e-07
3.44934977090333e-09
4.52277105618525e-07
3.07814373644661e-09
4.51744910178368e-07
2.67224199412168e-09
4.51319631146655e-07
2.15826223416904e-09
4.50987325360067e-07
1.70542399485727e-09
4.50746157157758e-07
1.25628961038396e-09
4.50577494395218e-07
8.95828483446823e-10
4.50472402182273e-07
5.77014193584417e-10
4.50414001807505e-07
3.40011881471486e-10
4.50392992916394e-07
1.47979707505217e-10
4.50396641973494e-07
1.85051640134838e-11
4.50417912304839e-07
-7.6030258289289e-11
4.50448515059515e-07
-1.29065385786974e-10
4.50484140363072e-07
-1.60051501957309e-10
4.50520086023e-07
-1.66890380678424e-10
4.50554311010341e-07
-1.62675399231776e-10
4.50584669691137e-07
-1.46908004072259e-10
4.5061067057864e-07
-1.27839787495533e-10
4.50631741057139e-07
-1.05180856901534e-10
4.50648247197467e-07
-8.36998422850761e-11
4.50660421322847e-07
-6.28668104930015e-11
4.50668965454917e-07
-4.51276622363927e-11
4.50674403252262e-07
-2.97103584623978e-11
4.50677449610303e-07
-1.76527945837299e-11
4.50678629931193e-07
-8.09281004201122e-12
4.50678514685461e-07
-1.30981549444335e-12
4.5067750595509e-07
3.49110621547054e-12
4.50675991143208e-07
6.35464494810375e-12
4.50674221851488e-07
7.93278174794041e-12
4.50672417224909e-07
8.3777203072175e-12
4.50670700958273e-07
8.15929020302736e-12
4.50669169877241e-07
7.41248177896942e-12
4.50667860802396e-07
6.43880767332176e-12
4.50666795259727e-07
5.32018743417553e-12
4.5066596174046e-07
4.2268054150069e-12
4.50665343915213e-07
3.18925365425053e-12
4.50664910492362e-07
2.28773527502991e-12
4.50664632242882e-07
1.51749946415357e-12
4.50664475588898e-07
9.04604925946143e-13
4.50664412315548e-07
4.26153961682002e-13
4.50664415041e-07
8.08051359705657e-14
4.50664462534965e-07
-1.59671806566944e-13
4.50664536352262e-07
-3.07676151371331e-13
4.50664623256837e-07
-3.88264244417296e-13
4.50664712724572e-07
-4.14412913720983e-13
4.50664798085551e-07
-4.05050935780279e-13
4.50664874693124e-07
-3.70269045394308e-13
4.50664940368383e-07
-3.22493453756861e-13
4.50664994123451e-07
-2.67915470259048e-13
4.50665036315226e-07
-2.13517655239481e-13
4.50665067808567e-07
-1.62143620610953e-13
4.50665090038203e-07
-1.16919269539544e-13
4.50665104499792e-07
-7.84175492681324e-14
4.50665112802147e-07
-4.74260008065165e-14
4.50665116384614e-07
-2.32913236914296e-14
4.50665116577906e-07
-5.61895128043047e-15
4.50665114472072e-07
6.68584069846609e-15
4.50665110986575e-07
1.4397526571413e-14
4.50665106809324e-07
1.86098872602448e-14
4.50665102464451e-07
2.0110120269622e-14
4.50665098300285e-07
1.97605396377112e-14
4.50665094547343e-07
1.81481389778973e-14
4.50665091322657e-07
1.58450330779771e-14
4.50665088674082e-07
1.32087707687189e-14
4.50665086588086e-07
1.0559581147834e-14
4.50665085020365e-07
8.0666107411821e-15
4.50665083901605e-07
5.86907545630503e-15
4.50665083156543e-07
4.01029494199928e-15
4.50665082706204e-07
2.51994237101978e-15
4.50665082478769e-07
1.3722173956993e-15
4.50665082408609e-07
5.43206825922958e-16
4.50665082441866e-07
-1.9639512037241e-17
4.50665082533903e-07
-3.5833231208907e-16
4.50665082651666e-07
-5.27951429583434e-16
4.50665082770033e-07