/*--------------------------------*- C++ -*----------------------------------*\
| =========                 |                                                 |
| \\      /  F ield         | OpenFOAM: The Open Source CFD Toolbox           |
|  \\    /   O peration     | Version:  2.3.x                                 |
|   \\  /    A nd           | Web:      www.OpenFOAM.org                      |
|    \\/     M anipulation  |                                                 |
\*---------------------------------------------------------------------------*/
FoamFile
{
    version     2.0;
    format      ascii;
    class       volScalarField;
    location    "20000";
    object      pMean;
}
// * * * * * * * * * * * * * * * * * * * * * * * * * * * * * * * * * * * * * //

dimensions      [0 2 -2 0 0 0 0];

internalField   nonuniform List<scalar> 
10000
(
2.05208313777239
1.9712868073133
1.98785636549335
1.93395553848763
1.93511617943758
1.89672626183728
1.88859975677094
1.85889449706223
1.84564830295094
1.82062157396385
1.8046266221574
1.78205332772573
1.76452949408081
1.74320105701531
1.72474257774548
1.70400623213712
1.6849188948054
1.66443848381466
1.64491582209242
1.62453757906302
1.60472460853756
1.58439080639561
1.56439722834012
1.5440919379253
1.5239951723019
1.50371547414017
1.48356549248168
1.46331029360735
1.44313640059003
1.42290321186456
1.40272085750664
1.38250572254235
1.36232194742173
1.34212040500874
1.32193765370955
1.30174550359474
1.28156405736681
1.26137771494386
1.2411970971511
1.22101394687451
1.20083340072183
1.18065199073633
1.16047109272151
1.14029022756725
1.12010886100653
1.09992801528497
1.07974603204027
1.05956516706095
1.03938266320175
1.01920164704751
0.999018776559981
0.978837650489544
0.958654549220106
0.938473335826315
0.918290109988631
0.89810888593177
0.877925642438794
0.857744323731693
0.837561156568009
0.817379753896811
0.797196585133161
0.777015277475079
0.756832020645875
0.736650839443115
0.716467648762862
0.696286341074695
0.676103108390445
0.655921939434837
0.635738716827405
0.615557485704109
0.595374342432871
0.575193051108998
0.555009850452978
0.534828674560152
0.514645425884798
0.494464270376041
0.474281003170484
0.454099859770576
0.433916597206427
0.413735474694369
0.393552252560909
0.373371042166546
0.353187920693563
0.333006582452327
0.312823428406208
0.29264220305765
0.272458995034117
0.252277823980116
0.232094593705071
0.211913456590388
0.191730251054466
0.171549022341072
0.151365846051255
0.131184591179727
0.111001561155695
0.0908202118436166
0.070637208911275
0.0504558695114162
0.0302728965979562
0.0100915311562941
2.05209290336766
1.97129007460404
1.98785662855626
1.93395912459135
1.93511679529525
1.89672864454716
1.88860046922402
1.85889608653578
1.84564891907028
1.82062255994722
1.80462696618194
1.78205376013209
1.76452946885407
1.74320102750053
1.72474227128411
1.70400595420689
1.68491850325808
1.66443816626924
1.64491548662738
1.62453732877193
1.60472437724621
1.58439064737833
1.56439709433982
1.54409185574355
1.5239951094823
1.50371544409764
1.48356547382923
1.46331029322595
1.44313640496499
1.42290322478957
1.40272087084378
1.38250573864032
1.362321961663
1.3421204190408
1.32193766512311
1.3017455136431
1.28156406493871
1.26137772100155
1.24119710129365
1.22101394981203
1.2008334023917
1.18065199163062
1.16047109291656
1.14029022734539
1.12010886048916
1.0999280146121
1.07974603132884
1.05956516633321
1.03938266256823
1.01920164644987
0.999018776109066
0.978837650077923
0.958654548956334
0.938473335580873
0.918290109874557
0.89810888581282
0.877925642422384
0.857744323686155
0.8375611566057
0.817379753893341
0.797196585190037
0.777015277474943
0.756832020716466
0.736650839444783
0.716467648825462
0.696286341060618
0.676103108438857
0.655921939418608
0.635738716874707
0.61555748567874
0.59537434246648
0.575193051077978
0.555009850485376
0.534828674526196
0.514645425917869
0.49446427033822
0.474281003202771
0.454099859731976
0.433916597238165
0.41373547466025
0.393552252593322
0.373371042133374
0.353187920724109
0.333006582420628
0.312823428433011
0.292642203024178
0.272458995066184
0.252277823944026
0.232094593737492
0.211913456558267
0.191730251084269
0.171549022303067
0.151365846076841
0.131184591152234
0.111001561174121
0.0908202118208257
0.0706372089387959
0.0504558694873323
0.0302728966130421
0.0100915311401339
2.05209686099457
1.97128569411245
1.98785550764975
1.93395872727485
1.93511622972744
1.89672843606917
1.88860020942304
1.85889599876103
1.84564881736314
1.82062249649606
1.80462685368858
1.78205360754126
1.76452926392874
1.74320080601456
1.72474205063044
1.70400576799242
1.68491835184209
1.66443806040988
1.64491541255395
1.62453728636445
1.60472435278881
1.58439063952179
1.56439709391745
1.54409186235303
1.52399511788511
1.50371545459752
1.48356548361567
1.46331030289111
1.44313641307279
1.42290323197804
1.40272087641819
1.3825057431888
1.36232196487383
1.34212042142482
1.32193766655131
1.30174551451635
1.28156406524396
1.26137772103018
1.24119710101214
1.22101394946773
1.20083340189604
1.1806519911583
1.16047109243986
1.14029022696922
1.12010886012251
1.09992801435954
1.07974603107764
1.05956516618921
1.03938266242261
1.01920164639804
0.999018776037328
0.978837650082823
0.95865454892813
0.938473335614723
0.918290109863759
0.898108885836332
0.877925642438117
0.857744323730539
0.837561156598581
0.817379753927902
0.797196585200682
0.777015277504073
0.756832020675146
0.736650839458747
0.716467648817188
0.696286341113067
0.676103108413958
0.655921939416516
0.635738716857331
0.615557485706689
0.595374342451957
0.575193051107565
0.555009850460652
0.534828674546094
0.51464542589263
0.494464270362409
0.47428100317745
0.454099859755039
0.433916597211507
0.413735474662019
0.393552252575552
0.373371042153327
0.353187920705669
0.333006582460161
0.312823428406739
0.292642203047836
0.272458995038055
0.252277823970852
0.232094593699923
0.211913456556554
0.191730251097077
0.171549022339765
0.151365846051811
0.131184591175371
0.111001561147846
0.0908202118455027
0.0706372089161203
0.0504558695139026
0.0302728965832951
0.0100915311603361
2.05210546001753
1.97127948680746
1.9878556068896
1.93395817302705
1.93511650692348
1.89672825790994
1.88860053086763
1.85889600689555
1.84564909136886
1.82062248468716
1.80462690730939
1.78205339636229
1.76452904743849
1.74320044236428
1.7247417273942
1.70400542425018
1.6849180867648
1.66443782760398
1.64491525157609
1.62453715971551
1.60472427483757
1.58439058421815
1.5643970669541
1.54409184730503
1.52399511747859
1.50371545899041
1.48356549437976
1.46331031437255
1.44313642633267
1.42290324396313
1.40272088792994
1.38250575274205
1.36232197310063
1.3421204277653
1.32193767149235
1.30174551799099
1.28156406761873
1.26137772245355
1.24119710169738
1.2210139496617
1.20083340165165
1.18065199074687
1.16047109183815
1.14029022640883
1.12010885947916
1.09992801386545
1.07974603054027
1.05956516584661
1.03938266204196
1.01920164621531
0.999018775797081
0.978837650025646
0.958654548789793
0.938473335639242
0.918290109785716
0.898108885895317
0.877925642406294
0.857744323815158
0.837561156566736
0.817379754012309
0.797196585177069
0.777015277583441
0.756832020619206
0.736650839529464
0.716467648778199
0.696286341194629
0.676103108352499
0.655921939468771
0.635738716804841
0.615557485770082
0.595374342396406
0.575193051169775
0.555009850395557
0.534828674606066
0.514645425826901
0.494464270425182
0.474281003110785
0.454099859817507
0.433916597143543
0.413735474713656
0.393552252517953
0.373371042211544
0.353187920650298
0.333006582527146
0.31282342834118
0.292642203109177
0.272458994972145
0.252277824034972
0.232094593628031
0.211913456606686
0.191730251056617
0.171549022405383
0.151365845988588
0.131184591235321
0.111001561082026
0.0908202119061181
0.0706372088636625
0.0504558695760461
0.0302728965100352
0.0100915312140245
2.05211709174301
1.97127189200599
1.98785608534933
1.93395760514525
1.93511709679185
1.89672813582204
1.88860109398008
1.85889607978249
1.84564951448218
1.82062247636341
1.80462698633703
1.78205310775267
1.76452876634892
1.743199965991
1.72474131350016
1.70400497882675
1.68491774545686
1.66443752269419
1.64491504030636
1.62453699012613
1.60472416968993
1.5843905077114
1.56439702885826
1.5440918247729
1.52399511535647
1.50371546332744
1.48356550795217
1.46331032897448
1.44313644381278
1.42290325974232
1.40272090339655
1.38250576552666
1.36232198431272
1.34212043634878
1.32193767833803
1.30174552275124
1.28156407099335
1.26137772444428
1.24119710276901
1.22101394996531
1.20083340144521
1.1806519901983
1.16047109110421
1.14029022563934
1.12010885867291
1.09992801316431
1.07974602986991
1.05956516533588
1.03938266157409
1.01920164591526
0.999018775517141
0.978837649895057
0.958654548646655
0.938473335618895
0.918290109726098
0.898108885925716
0.877925642401567
0.857744323883906
0.837561156566549
0.817379754083923
0.797196585191978
0.777015277641717
0.756832020586333
0.736650839584573
0.716467648761769
0.696286341265915
0.676103108320902
0.655921939493894
0.635738716770364
0.615557485815826
0.595374342364429
0.575193051210377
0.555009850357581
0.534828674639616
0.514645425786188
0.494464270462127
0.474281003069525
0.454099859853504
0.43391659710195
0.413735474736838
0.393552252478973
0.373371042249202
0.353187920616614
0.333006582575745
0.312823428303029
0.292642203142919
0.272458994933107
0.252277824072843
0.232094593578746
0.211913456630588
0.191730251041732
0.171549022446808
0.151365845951764
0.131184591262379
0.111001561047282
0.0908202119370597
0.0706372088392807
0.0504558696058652
0.0302728964694688
0.0100915312364215
2.05213082835139
1.97126312382616
1.98785664250265
1.93395702415173
1.93511779754925
1.89672804380685
1.88860175867693
1.8588961745257
1.84564997913659
1.82062242489074
1.80462702071171
1.78205272402033
1.76452840244377
1.743199396096
1.72474082780347
1.70400446780984
1.68491735769123
1.66443717969114
1.64491480434774
1.62453680224531
1.60472405460332
1.58439042513607
1.56439698931583
1.54409180264995
1.52399511580118
1.50371547076313
1.48356552531667
1.46331034717087
1.44313646481001
1.42290327854642
1.40272092149882
1.38250578041644
1.36232199718414
1.34212044615924
1.32193768603439
1.30174552807701
1.28156407466532
1.26137772657654
1.24119710381959
1.22101395019242
1.20083340107253
1.18065198950655
1.1604710901752
1.14029022472444
1.12010885769371
1.09992801235823
1.07974602907024
1.05956516476932
1.03938266102007
1.01920164559819
0.999018775183326
0.978837649774434
0.95865454847032
0.93847333562435
0.918290109644241
0.898108885991703
0.877925642377589
0.857744323986135
0.837561156550596
0.817379754186993
0.797196585184057
0.777015277732365
0.756832020537548
0.736650839668322
0.716467648723572
0.696286341357307
0.67610310826381
0.655921939548942
0.635738716712427
0.615557485883962
0.5953743423063
0.575193051274058
0.555009850292666
0.53482867469916
0.514645425718816
0.494464270524644
0.474281003001475
0.454099859915549
0.433916597033352
0.413735474789319
0.393552252415106
0.373371042311452
0.35318792055873
0.333006582645521
0.312823428238582
0.292642203202653
0.272458994868063
0.252277824136104
0.232094593505613
0.211913456682815
0.191730250996831
0.171549022512353
0.151365845889588
0.131184591316926
0.11100156098402
0.0908202119944956
0.070637208792068
0.0504558696625093
0.0302728963985561
0.0100915312839762
2.05214623830459
1.97125338502314
1.98785721579826
1.93395644458559
1.93511856048364
1.8967279803015
1.88860248183446
1.85889627093318
1.84565043842415
1.8206223036269
1.80462698002862
1.78205223978942
1.76452795524558
1.74319874890025
1.72474028725308
1.70400391343867
1.68491694214303
1.6644368168203
1.64491455759039
1.62453660806042
1.60472393810713
1.58439034325952
1.56439695277867
1.54409178412564
1.52399512061705
1.50371548231969
1.48356554676977
1.46331036883357
1.44313648890713
1.42290329976805
1.40272094160033
1.38250579671375
1.36232201112909
1.34212045660335
1.32193769415897
1.30174553355106
1.28156407837863
1.26137772859418
1.24119710474082
1.22101395020112
1.20083340053413
1.18065198860873
1.16047108909475
1.14029022363765
1.12010885661391
1.09992801142806
1.07974602822771
1.0595651641246
1.03938266046083
1.01920164523309
0.999018774869366
0.978837649625253
0.95865454832604
0.938473335609289
0.918290109600493
0.898108886050678
0.877925642379119
0.857744324072552
0.837561156567845
0.817379754275737
0.797196585199932
0.777015277799122
0.756832020524457
0.736650839739649
0.716467648702843
0.696286341417101
0.67610310823486
0.655921939588249
0.635738716672146
0.615557485927821
0.595374342267163
0.575193051309615
0.555009850255086
0.534828674732347
0.514645425678576
0.494464270559402
0.474281002961046
0.454099859949947
0.433916596993505
0.413735474824679
0.393552252370517
0.37337104235336
0.353187920522266
0.333006582685541
0.312823428202745
0.292642203233865
0.272458994833369
0.252277824170078
0.232094593464342
0.211913456722308
0.191730250961045
0.171549022544568
0.151365845855787
0.131184591339635
0.111001560950645
0.0908202120230906
0.070637208774953
0.0504558696853522
0.0302728963588462
0.010091531308138
2.05216306169363
1.97124287536379
1.98785779842047
1.93395589456029
1.93511937416113
1.89672795442287
1.88860324300399
1.85889635588285
1.84565086161499
1.82062209647092
1.80462684919056
1.78205165841199
1.76452743143256
1.74319804087717
1.72473970696231
1.70400333258192
1.6849165119758
1.66443644613093
1.64491430868933
1.62453641478952
1.604723824989
1.58439026583248
1.56439692142354
1.54409177078363
1.523995130436
1.50371549836816
1.48356557214152
1.46331039375014
1.4431365156036
1.4229033229963
1.40272096314903
1.38250581402144
1.36232202567897
1.34212046738955
1.32193770237116
1.30174553899407
1.28156408192655
1.26137773042523
1.24119710541631
1.22101395000121
1.20083339976286
1.18065198754317
1.16047108783798
1.1402902224429
1.12010885541707
1.09992801044754
1.07974602731466
1.05956516347057
1.03938265986347
1.01920164488407
0.999018774535341
0.978837649504462
0.958654548169572
0.938473335626861
0.918290109545473
0.898108886139726
0.877925642369799
0.857744324188063
0.837561156570699
0.817379754388323
0.797196585198919
0.777015277891589
0.756832020491517
0.736650839829054
0.716467648663768
0.696286341497664
0.676103108184724
0.655921939647229
0.635738716612208
0.615557485990908
0.595374342208094
0.575193051366175
0.555009850195629
0.534828674786713
0.514645425616294
0.494464270615623
0.474281002898704
0.454099860005949
0.433916596931286
0.413735474880319
0.393552252305855
0.373371042414998
0.353187920466226
0.333006582746437
0.312823428145522
0.292642203287008
0.272458994776407
0.252277824225796
0.232094593400948
0.211913456779742
0.191730250906412
0.171549022600571
0.151365845801084
0.131184591385488
0.111001560894005
0.0908202120739939
0.0706372087371086
0.0504558697318516
0.0302728962949226
0.010091531352205
2.05218106871522
1.97123176710648
1.98785838579195
1.93395539462044
1.93512022817235
1.89672796867396
1.88860401999745
1.85889641169039
1.84565122068869
1.82062179143713
1.80462662017352
1.78205098772792
1.76452684110138
1.74319728852937
1.72473910115662
1.70400273975639
1.68491607834983
1.66443607745303
1.64491406470027
1.62453622812915
1.60472371905325
1.58439019566513
1.56439689691053
1.54409176367233
1.52399514566769
1.50371551898596
1.48356560121154
1.46331042155741
1.44313654444837
1.42290334774969
1.40272098568957
1.38250583190452
1.36232204047958
1.34212047819698
1.32193771044575
1.3017455442182
1.28156408519068
1.26137773196643
1.2411971058084
1.22101394953955
1.20083339877245
1.1806519863133
1.16047108643686
1.14029022113976
1.12010885413893
1.09992800941312
1.07974602637271
1.05956516280449
1.03938265926535
1.01920164454084
0.999018774213085
0.978837649397125
0.958654548027704
0.938473335658313
0.918290109504313
0.898108886253015
0.877925642359923
0.857744324311224
0.837561156580469
0.817379754508707
0.797196585188913
0.777015277987194
0.756832020473021
0.736650839929647
0.716467648619252
0.696286341562314
0.676103108133338
0.655921939720568
0.635738716548705
0.615557486050659
0.595374342142131
0.57519305141782
0.555009850135052
0.53482867484241
0.514645425553925
0.494464270671223
0.474281002836394
0.454099860062
0.433916596869596
0.413735474949259
0.393552252238035
0.373371042479652
0.353187920407809
0.333006582798116
0.312823428088483
0.292642203339831
0.272458994721757
0.252277824279571
0.232094593344553
0.211913456853505
0.191730250832329
0.171549022647791
0.151365845747115
0.131184591430702
0.111001560836581
0.0908202121253314
0.0706372087024119
0.0504558697743577
0.0302728962300767
0.0100915314070708
2.05220005121743
1.97122020765255
1.98785897428784
1.93395495778084
1.93512111175956
1.89672801876207
1.88860478847315
1.85889641807202
1.84565149197233
1.82062138175208
1.8046262914206
1.78205023909389
1.76452619636516
1.74319650763031
1.72473848270378
1.70400214727277
1.68491565043811
1.66443571864345
1.64491383116626
1.62453605249517
1.60472362315373
1.58439013484981
1.56439688035001
1.54409176345553
1.52399516642533
1.50371554408804
1.48356563362238
1.46331045185866
1.44313657494571
1.42290337358068
1.40272100876563
1.38250584999436
1.36232205518894
1.34212048877661
1.32193771816416
1.30174554907037
1.28156408805873
1.26137773316103
1.24119710587338
1.22101394882523
1.2008333975556
1.18065198492552
1.16047108490418
1.14029021976433
1.12010885279976
1.09992800836351
1.07974602541026
1.05956516215253
1.03938265866746
1.01920164422517
0.999018773897952
0.978837649319373
0.958654547892165
0.938473335716147
0.918290109464463
0.898108886383853
0.877925642350193
0.857744324451547
0.837561156583298
0.817379754640737
0.797196585173071
0.777015278095131
0.756832020439256
0.73665084003595
0.71646764856551
0.696286341641033
0.676103108070868
0.655921939799962
0.635738716474948
0.615557486120729
0.595374342067299
0.575193051481429
0.555009850063669
0.534828674908497
0.514645425480397
0.494464270737872
0.474281002763148
0.454099860128945
0.433916596796456
0.413735475025484
0.393552252160275
0.373371042553951
0.353187920340002
0.333006582863038
0.312823428020883
0.292642203403884
0.272458994655394
0.252277824344814
0.232094593274774
0.211913456932517
0.191730250753613
0.171549022709502
0.151365845682516
0.131184591487522
0.111001560767792
0.0908202121879261
0.0706372086561668
0.0504558698299753
0.030272896153709
0.0100915314695696
2.05221982528821
1.97120832483819
1.98785956266559
1.93395459173685
1.93512201455017
1.89672809521555
1.8886055234974
1.85889635533689
1.84565165817838
1.82062086649918
1.80462586708371
1.78204942627035
1.76452551034296
1.74319571259604
1.72473786274815
1.70400156504231
1.68491523540596
1.66443537562875
1.64491361212157
1.62453589099455
1.6047235391807
1.58439008467955
1.56439687230318
1.54409177038931
1.5239951925566
1.50371557341184
1.4835656689175
1.46331048421839
1.44313660659972
1.42290340007395
1.4027210319593
1.38250586797898
1.36232206951297
1.34212049893732
1.32193772534984
1.30174555346972
1.2815640904456
1.26137773398581
1.24119710557978
1.22101394786627
1.20083339610577
1.18065198342659
1.1604710832486
1.14029021834963
1.12010885140112
1.09992800732772
1.07974602442528
1.05956516154522
1.03938265806371
1.01920164396126
0.999018773578568
0.978837649291165
0.958654547748156
0.938473335818334
0.918290109410287
0.898108886558409
0.877925642319168
0.857744324622112
0.837561156565134
0.817379754800251
0.797196585124312
0.777015278232172
0.756832020388576
0.736650840169973
0.716467648487026
0.69628634173166
0.676103107978695
0.655921939912961
0.63573871637809
0.615557486211031
0.595374341964114
0.575193051566896
0.555009849963266
0.534828675002616
0.514645425379207
0.494464270831564
0.474281002661955
0.454099860223662
0.433916596695158
0.413735475135709
0.393552252058725
0.37337104265289
0.353187920247421
0.333006582946513
0.312823427924734
0.292642203496039
0.272458994561407
0.252277824437044
0.232094593181823
0.211913457045061
0.19173025064088
0.171549022793285
0.151365845590101
0.131184591574836
0.11100156066844
0.0908202122798235
0.0706372085841507
0.0504558699125656
0.0302728960460219
0.0100915315728207
2.05224023112824
1.97119622970701
1.98786015137726
1.93395430009521
1.93512292594239
1.89672818431487
1.8886062007125
1.85889620680754
1.8456517089408
1.8206202500426
1.80462535575269
1.78204856416801
1.76452479615446
1.74319491603488
1.72473725064967
1.70400100077832
1.68491483865502
1.66443505254854
1.64491341031381
1.62453574555163
1.60472346823361
1.58439004574841
1.56439687292107
1.54409178432976
1.52399522374409
1.50371560650568
1.48356570663121
1.46331051812948
1.44313663898204
1.4229034267997
1.40272105495517
1.38250588555126
1.36232208326388
1.34212050848836
1.32193773192053
1.30174555730516
1.28156409233663
1.26137773439799
1.24119710495597
1.22101394665654
1.20083339447409
1.18065198179771
1.16047108151831
1.1402902168949
1.12010884999504
1.09992800629899
1.07974602346359
1.05956516096186
1.03938265749257
1.01920164372393
0.999018773289696
0.978837649283985
0.958654547627616
0.938473335933498
0.91829010937132
0.898108886735638
0.877925642299746
0.857744324793764
0.837561156551432
0.817379754956967
0.797196585082017
0.777015278364831
0.756832020334452
0.736650840297192
0.716467648411194
0.69628634182324
0.676103107888836
0.655921940018147
0.635738716283395
0.615557486298926
0.595374341865117
0.575193051650709
0.555009849866312
0.534828675093108
0.514645425281213
0.494464270922247
0.474281002564184
0.454099860315094
0.43391659659702
0.413735475239456
0.393552251960313
0.373371042748558
0.353187920158512
0.333006583030163
0.312823427832042
0.292642203585066
0.272458994470224
0.25227782452656
0.232094593089449
0.211913457150465
0.191730250536797
0.171549022876372
0.151365845500572
0.131184591658616
0.111001560572961
0.0908202123683469
0.0706372085139576
0.0504558699935877
0.0302728959426101
0.0100915316678139
2.05226112870117
1.97118401882663
1.98786074143245
1.93395408288451
1.93512383420618
1.89672826911918
1.88860679755221
1.85889596047194
1.84565164027739
1.82061954102861
1.80462476886164
1.78204766785111
1.76452406614837
1.7431941287429
1.72473665394881
1.70400046032557
1.68491446398526
1.66443475221097
1.64491322736176
1.62453561723631
1.60472341068954
1.58439001817268
1.56439688192649
1.54409180494305
1.52399525944856
1.50371564289309
1.48356574619879
1.46331055315566
1.44313667162414
1.42290345344019
1.40272107742073
1.38250590252527
1.36232209623471
1.34212051735356
1.32193773776335
1.30174556057402
1.28156409368627
1.26137773443167
1.2411971039836
1.22101394524807
1.20083339264602
1.18065198010007
1.16047107970787
1.14029021545121
1.12010884856497
1.09992800532467
1.07974602249741
1.0595651604479
1.03938265692197
1.01920164355442
0.999018772994933
0.978837649335599
0.958654547492429
0.938473336098683
0.918290109308811
0.898108886950561
0.877925642258076
0.857744324999125
0.837561156507345
0.81737975514216
0.797196585007533
0.777015278530915
0.756832020246498
0.736650840448703
0.716467648308718
0.69628634194324
0.676103107763089
0.655921940151891
0.635738716162625
0.615557486414813
0.595374341736689
0.575193051765804
0.555009849734426
0.534828675216968
0.514645425149084
0.494464271046757
0.474281002431895
0.454099860440683
0.433916596463743
0.413735475373559
0.393552251835027
0.373371042872383
0.353187920040829
0.333006583145045
0.312823427703965
0.292642203709023
0.272458994342938
0.252277824651013
0.23209459296231
0.21191345728289
0.191730250407624
0.171549022994475
0.151365845376034
0.131184591780172
0.11100156044097
0.0908202124925232
0.0706372084093306
0.0504558701102058
0.0302728958023028
0.0100915318067317
2.05228239608917
1.97117177545161
1.98786133380958
1.93395393670586
1.93512472617578
1.8967283305242
1.88860729482105
1.85889560958167
1.84565145376115
1.82061875104934
1.80462411955213
1.78204675149837
1.76452333152114
1.7431933596763
1.72473607863384
1.7039999478483
1.68491411402275
1.66443447621999
1.64491306410813
1.62453550634209
1.6047233664948
1.58439000160201
1.56439689887258
1.54409183162659
1.52399529912274
1.50371568196119
1.48356578714009
1.46331058879248
1.44313670418665
1.42290347963799
1.40272109916279
1.38250591867759
1.36232210835233
1.34212052540878
1.3219377428866
1.30174556321758
1.28156409453815
1.26137773406298
1.24119710272787
1.22101394362516
1.20083339069721
1.18065197831407
1.16047107787722
1.14029021399631
1.12010884716893
1.09992800437162
1.07974602158476
1.05956515996118
1.03938265640445
1.01920164340608
0.999018772744668
0.978837649397932
0.958654547390959
0.938473336264122
0.918290109270832
0.898108887157557
0.877925642234479
0.857744325192488
0.837561156476857
0.817379755313782
0.797196584946782
0.777015278680116
0.756832020167719
0.736650840585502
0.71646764821766
0.696286342050966
0.676103107650029
0.655921940269706
0.635738716053622
0.615557486517669
0.595374341621624
0.575193051867726
0.555009849616794
0.534828675326626
0.51464542503127
0.494464271157256
0.474281002314085
0.454099860552047
0.433916596345073
0.413735475492734
0.393552251722828
0.373371042983149
0.353187919936653
0.333006583248031
0.312823427590015
0.29264220381871
0.272458994230001
0.252277824761421
0.232094592848216
0.211913457401262
0.191730250293698
0.171549023098543
0.151365845264797
0.131184591886811
0.111001560324199
0.0908202126021927
0.0706372083173806
0.0504558702137104
0.0302728956777261
0.0100915319255199
2.0523039265625
1.97115957113857
1.9878619288718
1.93395385511321
1.93512558700774
1.8967283489329
1.88860767783705
1.85889515267954
1.8456511552497
1.82061789362339
1.80462342149323
1.78204582821355
1.76452260193443
1.74319261595815
1.72473552919465
1.70399946624239
1.6849137902945
1.66443422536347
1.64491292068111
1.62453541269724
1.60472333515736
1.58438999547906
1.56439692305756
1.54409186374109
1.52399534208659
1.50371572315847
1.4835658289121
1.46331062464697
1.44313673629437
1.42290350516095
1.40272111995712
1.38250593390759
1.36232211950301
1.34212053264171
1.32193774724396
1.30174556526374
1.28156409488661
1.26137773334428
1.241197101192
1.22101394184979
1.20083338862467
1.18065197648503
1.16047107602347
1.14029021257573
1.12010884579519
1.09992800348119
1.07974602070103
1.05956515953593
1.03938265591084
1.01920164331077
0.999018772506853
0.978837649500487
0.958654547290538
0.938473336459026
0.918290109223732
0.89810888737626
0.877925642205582
0.857744325401985
0.837561156428895
0.817379755495758
0.797196584875762
0.777015278843471
0.756832020062298
0.736650840726625
0.716467648115036
0.696286342181835
0.676103107519356
0.655921940392173
0.635738715932881
0.615557486636505
0.595374341495593
0.575193051988018
0.55500984948284
0.534828675451573
0.514645424896949
0.494464271284427
0.474281002179724
0.454099860679755
0.433916596209121
0.413735475618723
0.393552251598927
0.373371043106592
0.353187919819435
0.333006583372302
0.312823427458883
0.29264220394545
0.272458994098358
0.252277824889684
0.232094592712723
0.211913457522833
0.191730250179208
0.171549023225362
0.151365845136334
0.131184592011255
0.11100156019138
0.0908202127285579
0.0706372082069591
0.0504558703349364
0.0302728955376849
0.010091532064291
2.05232562684697
1.97114746677708
1.98786252615029
1.93395382865966
1.93512640057899
1.89672830585388
1.88860793722487
1.85889459278957
1.84565075388398
1.82061698310466
1.80462268818057
1.78204490951692
1.76452188562566
1.74319190301007
1.72473500891979
1.70399901722442
1.68491349357672
1.6644339997052
1.64491279677214
1.62453533568715
1.60472331597757
1.58438999898673
1.56439695373375
1.54409190052119
1.52399538771145
1.50371576587863
1.48356587106912
1.46331066030291
1.44313676768531
1.42290352976143
1.40272113968853
1.38250594809025
1.36232212967118
1.34212053900362
1.32193775087651
1.30174556671292
1.28156409478861
1.26137773228157
1.24119709943817
1.22101393991696
1.20083338648899
1.18065197461604
1.160471074191
1.14029021117176
1.12010884448003
1.09992800262499
1.07974601988401
1.05956515914205
1.03938265547589
1.0192016432345
0.999018772314888
0.978837649608902
0.958654547223519
0.938473336648722
0.918290109201215
0.898108887584582
0.877925642193011
0.857744325594964
0.837561156396036
0.817379755661268
0.797196584817369
0.777015278987127
0.756832019971947
0.736650840852489
0.716467648025407
0.696286342294262
0.676103107403675
0.655921940499389
0.635738715826201
0.615557486739103
0.59537434138422
0.575193052091622
0.555009849365371
0.534828675560177
0.514645424779541
0.494464271394965
0.474281002062341
0.454099860790811
0.433916596090519
0.413735475729966
0.393552251490314
0.373371043214844
0.353187919717772
0.333006583480002
0.312823427344151
0.292642204055409
0.272458993983979
0.252277825001006
0.232094592594707
0.211913457631212
0.191730250078024
0.171549023333686
0.151365845023492
0.131184592118643
0.11100156007591
0.0908202128381603
0.0706372081119863
0.0504558704402659
0.0302728954154294
0.0100915321808596
2.05234741566729
1.9711355136442
1.9878631240267
1.9339538452781
1.93512714998669
1.89672818558261
1.88860806884625
1.85889393654487
1.84565026099046
1.8206160339385
1.8046219323119
1.78204400528887
1.76452118929744
1.74319122483806
1.72473452000751
1.70399860167945
1.68491322396604
1.66443379880917
1.64491269167935
1.62453527445682
1.60472330804843
1.58439001124059
1.5643969900612
1.54409194121625
1.5239954353397
1.50371580958185
1.4835659131684
1.46331069542769
1.44313679810586
1.42290355327269
1.40272115824348
1.38250596117284
1.3623221388306
1.34212054450539
1.32193775380064
1.30174556759418
1.28156409427566
1.26137773091826
1.24119709749565
1.22101393787105
1.20083338431103
1.18065197272388
1.16047107239093
1.14029020980688
1.12010884322956
1.09992800181955
1.07974601913123
1.05956515878621
1.0393826550928
1.01920164318265
0.999018772160678
0.978837649727507
0.958654547181699
0.938473336837313
0.918290109194045
0.898108887777257
0.877925642195446
0.85774432577838
0.837561156368827
0.817379755813346
0.797196584773816
0.777015279117207
0.756832019878392
0.736650840961295
0.716467647944149
0.696286342408445
0.676103107297782
0.655921940586757
0.635738715728106
0.615557486836064