/*--------------------------------*- C++ -*----------------------------------*\
| =========                 |                                                 |
| \\      /  F ield         | OpenFOAM: The Open Source CFD Toolbox           |
|  \\    /   O peration     | Version:  2.3.x                                 |
|   \\  /    A nd           | Web:      www.OpenFOAM.org                      |
|    \\/     M anipulation  |                                                 |
\*---------------------------------------------------------------------------*/
FoamFile
{
    version     2.0;
    format      ascii;
    class       volScalarField;
    location    "20000";
    object      pPrime2Mean;
}
// * * * * * * * * * * * * * * * * * * * * * * * * * * * * * * * * * * * * * //

dimensions      [0 4 -4 0 0 0 0];

internalField   nonuniform List<scalar> 
10000
(
0.0429946032998876
0.0426506251796726
0.0420919876324555
0.0415155910411378
0.0407622546771389
0.0401433712260206
0.0393358025981696
0.0386932535970033
0.0378854418688404
0.0372270828138319
0.036432340989208
0.035761986615888
0.0349832274755419
0.0342987422863379
0.0335210367995886
0.0328266418353422
0.0320521308145918
0.0313582132028616
0.0305832800318258
0.0298881024982967
0.0291183766144809
0.0284312826767006
0.0276790595952767
0.0270081147773773
0.0262717173579485
0.0256161824335503
0.024896671226514
0.0242581688098875
0.0235579504655434
0.0229372356748652
0.0222558308881606
0.0216530434815256
0.0209919037230717
0.0204070646412817
0.0197660573618406
0.0191989156096939
0.018573684460135
0.0180215236515957
0.0174159128868698
0.0168814491733815
0.0162996850160018
0.0157853233227447
0.0152201758667077
0.0147201581633698
0.0141736319985979
0.0136926105559851
0.0131692239676859
0.0127073839124461
0.0122033387722398
0.0117588970848308
0.0112744744183184
0.0108474847777137
0.0103820947406155
0.00997252402357551
0.00952651157932538
0.00913421669570091
0.00870501546173608
0.00832868193718561
0.00791985708761411
0.00756048443633883
0.00717227395542663
0.00683230988274852
0.00646459437466151
0.00614114281464362
0.00579224235569908
0.00548571244881285
0.0051561565315536
0.00486855271593195
0.00455781977647007
0.00428598315111606
0.00399465650294073
0.00374106933254831
0.00347000849687951
0.00323467559623825
0.00298298856905471
0.00276507384097235
0.00253280880768714
0.00233230846671353
0.00211943529271169
0.00193636772314296
0.00174231036087558
0.00157595824424336
0.00140213388203622
0.00125325824680622
0.0010989623679783
0.000968136692712257
0.000833217165405895
0.000719844083101662
0.000604118236025887
0.000508210935950895
0.000412356673931885
0.000333769001423113
0.000256692557009768
0.000195385127395201
0.000137732534214159
9.39117053647669e-05
5.55132822113603e-05
2.9212894948164e-05
1.01180305480631e-05
1.3537525273719e-06
0.0429947013875207
0.0426507035044166
0.0420920905722224
0.041515684934514
0.0407623566384494
0.0401434523232984
0.0393358891882483
0.0386933165499825
0.0378855067219543
0.0372271228083294
0.0364323774845161
0.0357619977975281
0.0349832338728508
0.0342987291082886
0.0335210200812797
0.0328266141374165
0.032052109192688
0.0313581858871217
0.0305832618591606
0.0298880815975417
0.0291183645266906
0.0284312679145837
0.0276790542291239
0.0270081054025235
0.0262717163748727
0.0256161765853422
0.0248966728076945
0.024258164930445
0.0235579533921237
0.0229372328118278
0.0222558342815646
0.0216530409791902
0.0209919071358573
0.0204070622209434
0.0197660607586323
0.0191989133209753
0.0185736874336426
0.018021521628373
0.0174159150971083
0.0168814466745695
0.0162996876462174
0.0157853210512002
0.0152201781494541
0.0147201561224275
0.0141736338851546
0.0136926081738615
0.0131692261470251
0.01270738168983
0.0122033408799229
0.0117588949149496
0.0112744764855512
0.0108474827107207
0.0103820967150043
0.00997252201330623
0.00952651358864709
0.00913421492462363
0.00870501715572825
0.00832868023171218
0.00791985863185019
0.00756048287519862
0.0071722754354222
0.00683230825525338
0.00646459597158211
0.00614114190707171
0.00579224315846494
0.00548571104184409
0.00515615784320217
0.00486855153118726
0.00455782087365852
0.00428598217886361
0.00399465735745891
0.00374106822018988
0.00347000950108844
0.0032346745915845
0.00298298949288039
0.00276507290314137
0.00253280965595457
0.00233230760068506
0.00211943610685661
0.00193636699803751
0.00174231100076405
0.00157595772026001
0.00140213427201778
0.00125325769205212
0.00109896284031422
0.00096813620134957
0.000833217580297418
0.000719843661974598
0.000604118595993637
0.00050821067976356
0.000412356814403998
0.000333768756779811
0.000256692733693654
0.000195384941660076
0.000137732643856541
9.39115758949796e-05
5.55133522071091e-05
2.92128320811547e-05
1.01180396846146e-05
1.35371357274587e-06
0.0429947377977502
0.0426506911652669
0.0420920866585268
0.0415156721477277
0.0407623499227112
0.0401434413440698
0.0393358874430185
0.0386933106807827
0.0378855085003331
0.0372271174137051
0.0364323741472905
0.0357619845805943
0.0349832227385876
0.0342987127404064
0.0335210052244523
0.0328265986839438
0.0320521006299916
0.0313581767263904
0.0305832582318541
0.029888077320674
0.0291183635525627
0.0284312651878595
0.0276790556742927
0.027008103776716
0.0262717185325263
0.0256161753734783
0.0248966749979793
0.0242581636867687
0.0235579555457073
0.0229372315646126
0.0222558361919742
0.0216530395993642
0.0209919088844757
0.0204070607507816
0.0197660625470104
0.0191989122059217
0.0185736887559447
0.018021520804502
0.0174159157918803
0.0168814452517096
0.016299689011789
0.0157853200718991
0.0152201791815425
0.0147201552798235
0.0141736345057768
0.0136926068905818
0.0131692272784649
0.0127073805408044
0.0122033419728838
0.0117588937573678
0.0112744776018951
0.0108474816301003
0.0103820977529436
0.00997252093059997
0.00952651471220356
0.00913421418874072
0.00870501789803035
0.00832867942590265
0.00791985936306183
0.00756048213630856
0.00717227605701032
0.00683230740006235
0.00646459679993194
0.00614114186064774
0.00579224316983618
0.00548571041319712
0.00515615845285561
0.00486855110202061
0.0045578212912108
0.00428598186957635
0.00399465754643674
0.00374106772513683
0.00347000993158236
0.00323467416017226
0.00298298987748069
0.00276507249447372
0.00253281001516731
0.00233230721189209
0.00211943647593552
0.00193636675724423
0.00174231120303214
0.00157595761689938
0.00140213429232858
0.00125325750562921
0.00109896298528256
0.000968136025081986
0.000833217715215426
0.00071984351821143
0.000604118698851193
0.000508210680204797
0.000412356749757842
0.000333768732108188
0.000256692754685407
0.00019538489556184
0.000137732643630277
9.39115476087157e-05
5.55133557208244e-05
2.92128224114075e-05
1.01180220335843e-05
1.35369768228542e-06
0.0429948039031371
0.0426506969014726
0.0420921063056077
0.0415156837183215
0.0407623649330788
0.0401434527615603
0.0393359044722357
0.0386933227547606
0.0378855232714592
0.037227121578649
0.0364323738537893
0.0357619700376444
0.0349832053811787
0.0342986884988496
0.0335209794787321
0.0328265736068079
0.0320520822596841
0.0313581600087049
0.0305832472805978
0.0298880684441492
0.0291183577664835
0.0284312599144454
0.0276790545966032
0.0270081011550132
0.0262717194548805
0.0256161741195386
0.0248966766139525
0.0242581628425507
0.0235579574550426
0.0229372309105207
0.0222558379264999
0.0216530388151681
0.020991910463753
0.0204070598070791
0.0197660641529289
0.0191989117268485
0.0185736896752564
0.0180215206289047
0.0174159159398113
0.0168814442218941
0.0162996900467329
0.0157853195959128
0.0152201797740166
0.0147201549394536
0.0141736345789345
0.0136926059381222
0.0131692280843607
0.0127073796997921
0.012203342756669
0.0117588928848722
0.011274478441237
0.0108474808311374
0.0103820985170071
0.00997252010930705
0.00952651559027351
0.00913421383445889
0.00870501828896275
0.00832867895036682
0.00791985977691123
0.0075604816833964
0.0071722763601485
0.00683230678097513
0.00646459735944049
0.00614114224337126
0.00579224277054202
0.00548571010386617
0.0051561588157249
0.00486855097680772
0.00455782142754962
0.00428598186920842
0.00399465742032096
0.00374106747035879
0.00347001014762627
0.00323467393882448
0.002982990060312
0.00276507228120901
0.00253281019284318
0.0023323069966254
0.00211943668057624
0.00193636671870662
0.00174231120669766
0.0015759577210335
0.00140213411633397
0.00125325748730437
0.00109896298830972
0.000968135981147714
0.000833217728690203
0.000719843491559069
0.000604118680826847
0.000508210813281368
0.000412356567703061
0.00033376883079712
0.000256692695165681
0.00019538492228318
0.000137732580306762
9.39115708663892e-05
5.55133216910437e-05
2.92128418153239e-05
1.01179860527193e-05
1.35369215355052e-06
0.042994890404394
0.0426507112002477
0.0420921386187416
0.0415157065350003
0.0407623916073439
0.0401434744178228
0.039335931760383
0.0386933423584428
0.0378855440565049
0.0372271272346656
0.0364323721347155
0.0357619500623696
0.0349831816569659
0.0342986569099057
0.0335209458660999
0.0328265415413167
0.0320520583218205
0.0313581384943507
0.0305832326288029
0.0298880569217785
0.0291183498256293
0.0284312530621502
0.0276790528638227
0.0270080977447931
0.0262717204060201
0.0256161725754129
0.0248966785225027
0.0242581618700224
0.0235579597921025
0.02293723021881
0.0222558400386204
0.0216530379567927
0.0209919123953566
0.0204070587226082
0.0197660661009884
0.0191989113102431
0.0185736906535625
0.0180215205777821
0.0174159159929521
0.0168814430539332
0.016299691253705
0.0157853191594144
0.015220180362399
0.0147201546302824
0.014173634522834
0.0136926048487818
0.0131692290318119
0.0127073787148961
0.0122033436698221
0.01175889185004
0.0112744794374532
0.0108474798929942
0.0103820994137798
0.00997251913264241
0.00952651662305237
0.00913421351063315
0.00870501866561491
0.00832867844154495
0.00791986024011837
0.00756048119720421
0.00717227664587494
0.00683230606359186
0.00646459795626309
0.0061411428303112
0.0057922421614639
0.00548570984550822
0.00515615920953022
0.00486855091410082
0.00455782150531231
0.00428598194199376
0.0039946571802027
0.00374106722622775
0.00347001037118938
0.00323467371277331
0.00298299023949106
0.00276507206204818
0.00253281037446748
0.00233230676561083
0.00211943689378016
0.00193636673037653
0.00174231114599557
0.00157595790528151
0.00140213385336789
0.00125325751511057
0.00109896296210631
0.000968135954994412
0.000833217719909018
0.000719843483969085
0.000604118622249912
0.00050821101679506
0.000412356311253373
0.000333768991188046
0.000256692606122995
0.000195384965188169
0.000137732492763703
9.39116110115403e-05
5.55132718780792e-05
2.92128669052527e-05
1.01179394125875e-05
1.35369035580476e-06
0.0429949906246909
0.0426507289314948
0.0420921777251912
0.0415157341593346
0.0407624244917186
0.0401435004731159
0.039335964490153
0.0386933641014653
0.0378855662697548
0.0372271297051627
0.0364323660049615
0.0357619227207913
0.0349831516325865
0.0342986188833447
0.0335209066593061
0.0328265046720206
0.0320520314820745
0.0313581141975532
0.0305832164877735
0.0298880440995166
0.0291183412540965
0.0284312453940028
0.0276790514018663
0.0270080938669617
0.0262717219273756
0.0256161707626248
0.0248966810460161
0.0242581606352217
0.0235579627554574
0.022937229276657
0.0222558426845296
0.0216530367919652
0.0209919148159878
0.0204070572772228
0.0197660685330547
0.0191989107116817
0.0185736918788286
0.0180215204161145
0.0174159161301322
0.0168814415649303
0.0162996927918211
0.0157853185672678
0.0152201811330925
0.0147201541695998
0.0141736345149543
0.0136926034688425
0.0131692302629773
0.0127073774467121
0.0122033448509991
0.0117588905218138
0.011274480719095
0.0108474786862141
0.0103821005702657
0.00997251787828424
0.00952651793521675
0.00913421306971507
0.00870501916885524
0.00832867776778268
0.00791986086636931
0.00756048055925895
0.00717227703000678
0.00683230514356314
0.00646459869736171
0.0061411434967803
0.00579224145518431
0.00548570953015498
0.0051561597291499
0.00486855080893894
0.00455782162419377
0.00428598199268976
0.0039946569157045
0.00374106691021331
0.00347001067577635
0.00323467340828681
0.00298299048463657
0.00276507176882024
0.00253281062231675
0.00233230645827404
0.00211943717306626
0.00193636672677971
0.00174231108042255
0.00157595811160025
0.0014021335499162
0.00125325754415677
0.00109896294502282
0.000968135909791168
0.000833217721116108
0.000719843462931066
0.000604118553531395
0.000508211256748284
0.000412356005309235
0.000333769188731268
0.000256692503643515
0.000195385014226335
0.000137732388607169
9.39116573434144e-05
5.5513212208899e-05
2.92128953413239e-05
1.01178836748816e-05
1.35368852205144e-06
0.0429951016077217
0.0426507488906309
0.0420922220011635
0.0415157649076519
0.0407624622294893
0.0401435293058312
0.0393360009325505
0.0386933856311575
0.0378855874550741
0.0372271266277115
0.0364323539809366
0.0357618874448842
0.0349831158440712
0.0342985755026963
0.0335208634497719
0.0328264644716154
0.0320520033418665
0.0313580882779543
0.0305832000118653
0.029888030672224
0.0291183328058775
0.0284312372442064
0.0276790506681741
0.0270080896118206
0.0262717242879416
0.0256161686372649
0.0248966843459262
0.0242581590219886
0.023557966457123
0.0229372279437969
0.0222558459528137
0.0216530351753697
0.020991917811495
0.0204070553318716
0.0197660715355628
0.0191989098198291
0.0185736934289493
0.0180215200303804
0.0174159164465422
0.016881439650599
0.0162996947568064
0.0157853177333751
0.0152201821678988
0.0147201534573114
0.0141736346443373
0.0136926017064094
0.0131692318714649
0.012707375805691
0.0122033463873332
0.0117588888118323
0.0112744823711569
0.0108474771280362
0.0103821020659397
0.00997251626545981
0.00952651960152395
0.00913421244748114
0.00870501986199546
0.00832867685455385
0.0079198617316778
0.00756047970909501
0.00717227757077332
0.00683230395568235
0.00646459964170454
0.00614114419254619
0.00579224069784523
0.00548570910161966
0.00515616043354583
0.00486855061313729
0.00455782183014691
0.0042859819683298
0.00399465667303639
0.00374106647204453
0.00347001111009099
0.00323467297830587
0.00298299083934933
0.00276507135724099
0.00253281097710989
0.00233230603380843
0.00211943755541966
0.00193636667635655
0.00174231103950293
0.001575958309569
0.00140213323312494
0.00125325754418264
0.0010989629648642
0.00096813581796551
0.000833217756451635
0.000719843404826531
0.00060411849496371
0.00050821151791855
0.00041235566235201
0.00033376940559653
0.00025669240147996
0.000195385051235657
0.000137732281217186
9.39117012210069e-05
5.55131484920625e-05
2.92129185342697e-05
1.01178223921956e-05
1.35368581214726e-06
0.042995221302415
0.0426507709104058
0.0420922711259322
0.0415157986274091
0.0407625045410516
0.040143560495459
0.039336040089994
0.0386934054069457
0.0378856057836501
0.0372271166079172
0.0364323353455189
0.0357618445007812
0.0349830750617861
0.0342985279168326
0.0335208175736934
0.03282642213766
0.0320519749113095
0.0313580615727962
0.0305831838834609
0.0298880170757458
0.029118324890987
0.0284312288634179
0.0276790508089824
0.0270080851092507
0.0262717275229254
0.0256161662480214
0.024896688404485
0.0242581570418152
0.0235579708572664
0.0229372262182688
0.0222558498018413
0.0216530331039448
0.0209919213434095
0.0204070528889426
0.0197660750771893
0.01919890861357
0.0185736953207642
0.0180215193712687
0.017415916979876
0.0168814373060235
0.0162996971368081
0.0157853166448778
0.0152201834905783
0.0147201524518448
0.0141736349421946
0.0136925995636119
0.0131692338457643
0.0127073738074921
0.0122033482652362
0.0117588867349321
0.0112744843791442
0.0108474752332857
0.0103821038871511
0.00997251430765544
0.00952652161092393
0.00913421163370587
0.00870502076050472
0.00832867568660201
0.00791986285566482
0.00756047863785037
0.00717227827173106
0.00683230250787814
0.00646460079175692
0.00614114488418693
0.00579223992388045
0.00548570854610031
0.00515616132177293
0.00486855031716621
0.00455782213978723
0.00428598184332291
0.00399465647106467
0.00374106590666023
0.00347001167314737
0.00323467242528269
0.00298299130224694
0.00276507082901001
0.00253281143693845
0.00233230549428357
0.00211943803959236
0.00193636657303703
0.00174231103350445
0.00157595848492592
0.00140213291552285
0.00125325751092151
0.00109896302133175
0.000968135680588567
0.00083321782533817
0.00071984331056707
0.00060411844823767
0.000508211792568873
0.000412355289330625
0.000333769636753464
0.000256692300696564
0.000195385079983481
0.000137732168369997
9.39117416432003e-05
5.55130811412414e-05
2.92129396502693e-05
1.01177550699209e-05
1.35368058425823e-06
0.0429953481001366
0.0426507949221362
0.0420923247049307
0.0415158351445379
0.0407625510544349
0.0401435934269294
0.0393360806894001
0.038693421801578
0.0378856195199169
0.03722709870293
0.0364323098388852
0.0357617945282431
0.034983030226412
0.0342984773397976
0.0335207701879101
0.032826378730892
0.0320519470228131
0.0313580347700348
0.0305831686066091
0.0298880036997877
0.029118317774695
0.0284312204534989
0.0276790519330126
0.0270080804473483
0.0262717316487726
0.0256161636157271
0.0248966932032451
0.0242581546948517
0.0235579759170106
0.0229372240863133
0.0222558541980848
0.0216530305690319
0.020991925380343
0.0204070499506552
0.0197660791262766
0.0191989070875465
0.0185736975365889
0.0180215184382675
0.0174159177208919
0.0168814345425827
0.0162996999197675
0.0157853153025884
0.0152201850938911
0.0147201511671864
0.0141736354102253
0.0136925970513346
0.0131692361778908
0.0127073714588775
0.0122033504791201
0.0117588843015617
0.0112744867332721
0.0108474730084726
0.0103821060273682
0.00997251201583804
0.00952652395141573
0.00913421062997599
0.00870502185968081
0.00832867427352746
0.0079198642201298
0.00756047735179211
0.00717227913247631
0.00683230080759034
0.00646460213968891
0.00614114556476086
0.00579223913967786
0.00548570786400221
0.00515616239279554
0.0048685499187765
0.00455782255294807
0.00428598162250915
0.00399465631340312
0.00374106521460899
0.00347001236475308
0.00323467174802528
0.00298299187485174
0.00276507018374181
0.00253281200217098
0.00233230484133473
0.00211943862421846
0.00193636641466685
0.00174231106377029
0.0015759586360764
0.00140213259865252
0.00125325744170754
0.00109896311708788
0.000968135496591221
0.000833217929110092
0.000719843178689242
0.000604118415787301
0.000508212077161341
0.000412354890480179
0.000333769879569418
0.000256692202196516
0.000195385096733659
0.000137732053650436
9.39117788829307e-05
5.55130102851079e-05
2.92129558204625e-05
1.01176833477636e-05
1.35367382235813e-06
0.0429954809197044
0.0426508207169327
0.0420923823262744
0.0415158741601691
0.0407626012418154
0.0401436272426983
0.0393361212285996
0.0386934330825883
0.0378856272475803
0.0372270724356496
0.0364322776237684
0.0357617384494939
0.0349829823817909
0.0342984249084983
0.0335207223362635
0.0328263351326576
0.0320519203303093
0.0313580084242462
0.0305831545675139
0.0298879908150211
0.0291183116806177
0.0284312121642847
0.0276790540907501
0.0270080756945177
0.0262717366507106
0.0256161607653023
0.0248966986955539
0.0242581519851912
0.0235579815851579
0.0229372215519428
0.0222558590903854
0.0216530275778672
0.0209919298795624
0.0204070465272441
0.0197660836455467
0.0191989052493771
0.0185737000629373
0.0180215172152776
0.0174159186873581
0.0168814313713026
0.0162997030841825
0.0157853137184851
0.0152201869727677
0.0147201495834126
0.0141736360587401
0.0136925941841746
0.0131692388515081
0.0127073687803778
0.0122033530092243
0.0117588815293581
0.0112744894159504
0.0108474704726953
0.0103821084675344
0.00997250940610939
0.00952652660517472
0.00913420944495458
0.00870502315513766
0.00832867261331283
0.00791986583926374
0.00756047585395203
0.00717228014495142
0.0068322988682713
0.00646460367757284
0.00614114622183093
0.00579223836023868
0.00548570705692403
0.00515616363792432
0.00486854942258713
0.00455782306987379
0.00428598129213181
0.00399465620734746
0.0037410643993761
0.00347001317915552
0.003234670954122
0.00298299254999024
0.00276506942794408
0.0025328126666419
0.00233230408023677
0.00211943930380806
0.00193636620383517
0.00174231113140058
0.0015759587572422
0.00140213228981859
0.00125325733693732
0.00109896324920974
0.000968135268885895
0.000833218065367472
0.000719843011958557
0.000604118395786224
0.000508212370069629
0.000412354468063349
0.000333770132688694
0.000256692106063178
0.000195385104997847
0.000137731934968962
9.3911812529341e-05
5.55129363137286e-05
2.92129699605496e-05
1.01176065086061e-05
1.35366436572511e-06
0.0429956187499805
0.0426508480348402
0.0420924435599952
0.0415159153623414
0.0407626544634518
0.0401436608869927
0.0393361600833542
0.0386934377724919
0.0378856279563609
0.0372270378052066
0.0364322392543306
0.0357616773613074
0.0349829325950139
0.0342983716450029
0.033520674890811
0.0328262920371478
0.0320518953197202
0.0313579829256683
0.0305831420411162
0.0298879786167188
0.0291183067206964
0.0284312040916888
0.0276790572903969
0.0270080709010627
0.0262717424861223
0.025616157706942
0.0248967048315922
0.0242581489229683
0.0235579878030512
0.0229372186161978
0.0222558644356419
0.0216530241399511
0.0209919347995713
0.0204070426418852
0.0197660885985074
0.0191989030931525
0.0185737028945767
0.0180215157042332
0.0174159198660597
0.0168814278100533
0.0162997066109274
0.0157853118896885
0.015220189125658
0.0147201477210495
0.0141736368871579
0.0136925909795191
0.0131692418445284
0.0127073657905825
0.012203355838498
0.0117588784423832
0.0112744924045509
0.0108474676433754
0.0103821111908405
0.00997250650151194
0.00952652955411748
0.00913420807673837
0.0087050246445084
0.00832867072153654
0.00791986768296693
0.00756047415166439
0.00717228130746339
0.00683229670439334
0.00646460539905636
0.00614114684325584
0.0057922375971643
0.00548570612242688
0.00515616505025196
0.00486854882474302
0.00455782369244606
0.00428598085989834
0.00399465615506356
0.00374106346511283
0.0034700141091985
0.00323467004822248
0.00298299332401991
0.00276506856689201
0.0025328134249582
0.0023323032186337
0.00211944007304046
0.0019363659382515
0.00174231123840579
0.00157595884762177
0.00140213198830258
0.00125325719698219
0.00109896341554568
0.000968135001180828
0.000833218231111182
0.000719842812794108
0.000604118388770968
0.000508212667089565
0.000412354025753667
0.000333770395638221
0.00025669201028182
0.000195385104222057
0.00013773181320116
9.3911844228323e-05
5.55128579761621e-05
2.92129804118427e-05
1.01175256023841e-05
1.35365306989979e-06
0.0429957614734473
0.0426508767027758
0.042092508048261
0.0415159583565829
0.0407627100308763
0.0401436931226486
0.0393361956516056
0.0386934346148728
0.0378856211613932
0.0372269952255362
0.0364321955556708
0.0357616123990652
0.0349828819035731
0.0342983184233363
0.0335206285691063
0.0328262499629925
0.0320518723679486
0.0313579585319577
0.0305831312035614
0.0298879671964309
0.0291183029908608
0.0284311962615407
0.0276790615460594
0.0270080660445706
0.0262717491421136
0.0256161544056535
0.0248967115886396
0.0242581454709616
0.0235579945529167
0.0229372152496063
0.0222558702199236
0.0216530202339738
0.0209919401346845
0.0204070382776915
0.0197660939812949
0.019198900611785
0.0185737060279816
0.0180215138875048
0.0174159212815326
0.0168814238547714
0.0162997105039666
0.0157853098131566
0.0152201915529748
0.0147201455588835
0.0141736379141333
0.013692587434414
0.0131692451647498
0.012707362483271
0.0122033589720836
0.0117588750333291
0.0112744957054325
0.0108474645146722
0.0103821142014994
0.00997250329542021
0.00952653280031657
0.00913420652276298
0.00870502632981229
0.00832866858827286
0.00791986977022729
0.0075604722395336
0.00717228262444425
0.00683229431297727
0.00646460730676779
0.00614114741604188
0.00579223686389807
0.00548570505855789
0.00515616663313706
0.00486854812215259
0.00455782442247038
0.00428598031279703
0.00399465616695521
0.003741062408468
0.00347001515943407
0.00323466902634323
0.00298299419985698
0.00276506759697309
0.00253281428044938
0.00233230225243408
0.00211944093441507
0.00193636561549351
0.00174231138735587
0.00157595890088399
0.0014021317023304
0.00125325701849205
0.00109896361925735
0.000968134689973865
0.000833218429288005
0.000719842578283281
0.000604118396266888
0.000508212966101533
0.000412353565814975
0.000333770666658083
0.000256691916992773
0.000195385095561502
0.000137731688061034
9.39118723996529e-05
5.55127764493265e-05
2.92129890313922e-05
1.01174401609608e-05
1.35363881505206e-06
0.0429959086759704
0.0426509063887064
0.0420925754310835
0.041516002678017
0.040762767111751
0.0401437225727608
0.0393362264614092
0.0386934228069493
0.0378856068240983
0.0372269453913803
0.0364321475454372
0.0357615446788291
0.0349828312816465
0.0342982659393707
0.0335205839596138
0.0328262092422564
0.0320518517265342
0.0313579353767617
0.0305831221886681
0.0298879565668129
0.0291183005287654
0.0284311886517914
0.0276790668318392
0.0270080611079075
0.0262717565776658
0.0256161508324135
0.0248967189330123
0.0242581416106931
0.0235580018036061
0.0229372114341646
0.02225587642788
0.0216530158507526
0.0209919458716086
0.020407033437108
0.0197660997912998
0.0191988977796942
0.0185737094940117
0.0180215117393965
0.0174159229495152
0.0168814194948481
0.0162997147698283
0.0157853074660033
0.0152201942805543
0.0147201430848722
0.0141736391591287
0.0136925835414441
0.0131692488078035
0.0127073588607824
0.012203362408552
0.0117588713084014
0.0112744993131846
0.0108474610888086
0.0103821174975618
0.00997249979366566
0.00952653634617284
0.00913420476526028
0.00870502822703578
0.00832866620743034
0.0079198720964323
0.00756047010816041
0.00717228410612691
0.00683229169298538
0.00646460941578741
0.00614114791685305
0.00579223618386626
0.00548570384501129
0.00515616839151234
0.0048685473007537
0.00455782527475096
0.0042859796418096
0.0039946562543694
0.00374106122207679
0.00347001633081639
0.00323466788606003
0.00298299518039885
0.0027650665162387
0.00253281523403778
0.00233230118178562
0.00211944189050464
0.00193636522727422
0.00174231158780216
0.00157595890907275
0.00140213143683407
0.0012532567965917
0.0010989638611871
0.000968134335037493
0.000833218660091811
0.000719842307748034
0.000604118422155756
0.000508213260698338
0.000412353092552165
0.000333770942217277
0.000256691826266763
0.00019538507569309
0.000137731561612885
9.39118964973003e-05
5.55126915003021e-05
2.92129930554419e-05
1.01173513598652e-05
1.35362163419532e-06
0.0429960605427375
0.0426509369406438
0.042092645367704
0.0415160477826761
0.0407628247832523
0.0401437477908191
0.0393362512793436
0.038693401946261
0.0378855852882363
0.0372268892314986
0.0364320963069473
0.0357614752197399
0.0349827815651476
0.0342982147590178
0.0335205415001161
0.0328261701168255
0.0320518335759958
0.031357913512899
0.0305831150440481
0.0298879467009661
0.0291182993524606
0.0284311812121145
0.0276790731435601
0.0270080560187345
0.0262717647849393
0.0256161469190328
0.02489672686385
0.0242581372851602
0.0235580095617811
0.0229372071219331
0.0222558830739525
0.0216530109524991
0.0209919520306239
0.0204070280887749
0.0197661060475298
0.019198894574352
0.0185737133022963
0.0180215092374973
0.0174159248989656
0.0168814147163892
0.0162997194296934
0.0157853048295009
0.0152201973178656
0.0147201402782922
0.0141736406483726
0.0136925792862219
0.0131692527961393
0.0127073548993899
0.0122033661701006
0.0117588672457745
0.0112745032485868
0.0108474573438182
0.0103821210991594
0.0099724959765437
0.00952654020701471
0.00913420278985866
0.00870503034602654
0.00832866356367934
0.00791987467821642
0.00756046774601915
0.00717228576762274
0.00683228883046139
0.00646461173598634
0.00614114832809998
0.00579223557302111
0.00548570247581615
0.0051561703376044
0.0048685463490421
0.00455782625504264
0.0042859788353089
0.00399465643096147
0.0037410598977346
0.0034700176347805
0.00323466661501121
0.00298299627646365
0.00276506531388426
0.00253281629589572
0.00233229999674744
0.00211944294944064
0.00193636476582856
0.00174231184473178
0.00157595886459905
0.00140213120043559
0.00125325652533578
0.001098964148995
0.000968133928727133
0.000833218930096857
0.000719841994357415
0.000604118470976224
0.000508213546951436
0.000412352609427374
0.000333771220006336
0.000256691741405246
0.000195385045226551
0.000137731434247331
9.3911914495334e-05
5.55126044940501e-05
2.92129940515514e-05
1.01172589081699e-05
1.35360050312581e-06
0.0429962169269924
0.0426509680860656
0.0420927174895414
0.0415160930022602
0.0407628819828956
0.0401437673745368
0.0393362692183965
0.0386933720360561
0.0378855571924994
0.0372268277712569
0.036432042924734
0.0357614049295578
0.034982733488532
0.0342981653031322
0.0335205015184874
0.032826132687287
0.03205181801472
0.0313578929336376
0.0305831098007951
0.029887937521814
0.0291182994556132
0.0284311738623795
0.0276790804457221
0.0270080507185888
0.0262717737363438
0.0256161426170736
0.0248967353632943
0.0242581324571036
0.0235580178212986
0.0229372022860921
0.0222558901610506
0.0216530055188409
0.0209919586192131
0.0204070222175499
0.0197661127690834
0.0191988909729741
0.0185737174893208
0.0180215063497386
0.0174159271598424
0.0168814094946763
0.0162997245040954
0.0157853018829024
0.0152202006943423
0.0147201371072045
0.0141736424054246
0.0136925746481316
0.0131692571401749
0.0127073505905573
0.0122033702657027
0.011758862836722
0.0112745075205459
0.0108474532717168
0.0103821250145294
0.00997249183543358
0.00952654439758449
0.00913420058006487
0.00870503270552458
0.00832866063777038
0.00791987753575107
0.00756046513807929
0.00717228762037214
0.00683228571428807
0.00646461429012102
0.00614114863239179
0.0057922350499906
0.00548570092820888
0.00515617248237205
0.00486854525491631
0.00455782737868982
0.00428597787531376
0.00399465670885951
0.00374105842349193
0.00347001907794847
0.00323466520747623
0.00298299749384062
0.00276506398401621
0.00253281747099557
0.00233229869185711
0.00211944411831289
0.00193636422393006
0.00174231216786533
0.0015759587583378
0.00140213100023998
0.00125325619804861
0.0010989644857836
0.000968133467565968
0.00083321924228863
0.00071984163517709
0.000604118547485266
0.000508213820627622
0.000412352118849789
0.000333771495094913
0.000256691664966922