/*--------------------------------*- C++ -*----------------------------------*\
| =========                 |                                                 |
| \\      /  F ield         | OpenFOAM: The Open Source CFD Toolbox           |
|  \\    /   O peration     | Version:  2.3.x                                 |
|   \\  /    A nd           | Web:      www.OpenFOAM.org                      |
|    \\/     M anipulation  |                                                 |
\*---------------------------------------------------------------------------*/
FoamFile
{
    version     2.0;
    format      ascii;
    class       volVectorField;
    location    "20000";
    object      U;
}
// * * * * * * * * * * * * * * * * * * * * * * * * * * * * * * * * * * * * * //

dimensions      [0 1 -1 0 0 0 0];

internalField   nonuniform List<vector> 
10000
(
(1.03998663714022 -1.8080253916964e-16 -0.000197059337420765)
(1.06976558828081 6.14967955549994e-15 -7.86330444763581e-05)
(1.08589134828968 -8.03701904176318e-15 -7.07758983819566e-05)
(1.10817779895937 -1.94358875903752e-16 -6.32348894657494e-05)
(1.12254132904135 2.41371670136467e-16 -5.84264008163117e-05)
(1.14012571189792 -6.18987358719335e-15 -5.27616868050798e-05)
(1.15288447138582 1.42996852955037e-15 -4.8312896091246e-05)
(1.16670214125877 1.53782159935149e-15 -4.2388002391988e-05)
(1.17711089894407 1.20165983134948e-15 -3.67677310594171e-05)
(1.18698699234581 8.70242267997299e-16 -2.93330911337407e-05)
(1.19381058662213 -2.05310646630874e-15 -2.18711148196901e-05)
(1.19903645329022 -1.09062172178297e-15 -1.3471443717028e-05)
(1.20149130265127 2.34870053938557e-15 -6.1058154343678e-06)
(1.20233791901748 9.35929405599593e-16 3.07480619190443e-07)
(1.20138915765081 4.46609790456601e-16 4.64030327752811e-06)
(1.19967834137741 5.34685607322136e-16 7.35697809936071e-06)
(1.19730866973009 3.84477098543832e-16 8.41232136092159e-06)
(1.19493598387605 2.27326564786595e-16 8.48071112096294e-06)
(1.19258164003312 1.54876577630121e-15 7.78307117436029e-06)
(1.19055959163651 4.60021288032966e-16 6.77228606991683e-06)
(1.18880146521965 1.24496973958908e-16 5.57706583394758e-06)
(1.18742572942275 2.43415337344024e-16 4.41850405197918e-06)
(1.1863342292213 4.39563799955874e-17 3.32877148364214e-06)
(1.18555531878738 -8.34369974792782e-17 2.39566848820818e-06)
(1.18499712525535 -8.74498838450203e-17 1.60453707559466e-06)
(1.18465326704869 -8.71037308452042e-15 9.80056065930616e-07)
(1.18445129421717 -7.65722314504922e-16 4.92187242796144e-07)
(1.18437580372973 -3.65558509223899e-16 1.39253527314007e-07)
(1.18437537479333 -3.21181373949363e-16 -1.09795842456064e-07)
(1.18443637192195 -3.48818241969353e-16 -2.66107569595e-07)
(1.1845257917381 -3.5121641633905e-16 -3.55590923881772e-07)
(1.18463505018995 -3.5222331197472e-15 -3.89885215601074e-07)
(1.18474503671518 -1.2024125612799e-15 -3.88136493626197e-07)
(1.18485216643667 -7.13950900580115e-16 -3.59587186555755e-07)
(1.184946965379 1.1471451044417e-15 -3.16940867523767e-07)
(1.18502950287841 -1.94183538464218e-16 -2.66067636595892e-07)
(1.18509628546135 -6.48900246290683e-15 -2.14325118429411e-07)
(1.18514941305279 -1.10078393532348e-15 -1.6453712007917e-07)
(1.18518859710163 -6.50094454727647e-16 -1.20191312976883e-07)
(1.18521662954488 -5.8400494214948e-16 -8.19405983728526e-08)
(1.18523456527864 -5.59398168151792e-16 -5.08450849400222e-08)
(1.1852450292963 -5.1884068095327e-16 -2.63286132753217e-08)
(1.18524934245969 -5.67186752899143e-15 -8.17011567343157e-09)
(1.18524954741998 -1.15478251295009e-15 4.68561291948703e-09)
(1.18524672850457 -7.25015948930603e-16 1.29243140752572e-08)
(1.18524226811603 -8.98156187170686e-16 1.76226965726515e-08)
(1.1852368608722 3.70340093090746e-16 1.95267064764169e-08)
(1.1852313049913 -6.96906389014375e-16 1.95032276125482e-08)
(1.18522593811296 3.02289978221871e-16 1.81294918072453e-08)
(1.18522113499315 -8.369202488536e-16 1.59902418203892e-08)
(1.1852169832532 1.65808261315793e-16 1.34480259390713e-08)
(1.18521359431049 -5.08431471853637e-16 1.08369573402499e-08)
(1.18521091538669 -1.01760040492572e-15 8.3364288490564e-09)
(1.18520892115711 4.32272071812137e-17 6.09750216369888e-09)
(1.18520750243084 -9.8739615453535e-16 4.17395468941898e-09)
(1.18520658194786 4.39830061383426e-17 2.6033042841209e-09)
(1.18520604651589 -1.05746604927516e-15 1.36877455268618e-09)
(1.18520581514782 -6.08624653903452e-17 4.50381872590288e-10)
(1.18520579610599 -1.12548582180259e-15 -1.98076018161366e-10)
(1.18520592638667 -1.05793508399027e-16 -6.18238249645993e-10)
(1.1852061437666 -1.10649101449675e-15 -8.5968424673176e-10)
(1.18520640825116 -1.03700606556592e-16 -9.62458636425235e-10)
(1.18520668377497 -7.96074219207376e-16 -9.66802445977587e-10)
(1.18520695001316 -8.82274857713441e-17 -9.0340583880677e-10)
(1.1852071903363 -1.19728491262486e-18 -7.99864854479783e-10)
(1.18520739814302 -9.86203602482316e-16 -6.75609833521638e-10)
(1.18520756903972 -2.57487665947197e-16 -5.46532365992634e-10)
(1.18520770427774 -1.03966857565849e-15 -4.22520792488723e-10)
(1.18520780581564 -4.66266264942202e-16 -3.10731604847354e-10)
(1.18520787827876 -1.12650745521008e-15 -2.14463347118471e-10)
(1.18520792596262 -4.90720410876514e-16 -1.3539839251211e-10)
(1.18520795405081 -2.79822635251036e-16 -7.30851420734624e-11)
(1.18520796688046 -2.42444249719333e-16 -2.63810161759351e-11)
(1.18520796876187 -7.54327270414497e-16 6.77910628788256e-12)
(1.18520796305394 -1.06941177079657e-15 2.84777105689843e-11)
(1.18520795275893 -5.32766096498206e-16 4.10633154411899e-11)
(1.18520794002847 -1.06211896187966e-15 4.66352626841736e-11)
(1.18520792660207 -5.27819905449786e-16 4.71787370968624e-11)
(1.18520791358653 -4.77593971594681e-16 4.4290234937741e-11)
(1.18520790177335 -3.93653019765766e-16 3.93372394853637e-11)
(1.18520789154517 -9.81542416612609e-16 3.3327240059949e-11)
(1.18520788309604 -5.840590661331e-16 2.70473558085347e-11)
(1.18520787639379 -1.02790206587713e-15 2.10102803448773e-11)
(1.18520787132407 -6.65957466372876e-16 1.55718694870063e-11)
(1.18520786767363 -1.0148141458856e-15 1.09018559511575e-11)
(1.18520786521751 -1.35884930543124e-18 7.08548224998211e-12)
(1.18520786370776 -5.54127418134868e-16 4.09975753025682e-12)
(1.18520786292213 -8.9261150050891e-16 1.88913759815071e-12)
(1.18520786265235 -6.33290842474606e-16 3.48217585419415e-13)
(1.18520786272794 -8.70319209840814e-16 -6.28106215708318e-13)
(1.1852078630059 -1.42668739241709e-15 -1.16230667071119e-12)
(1.18520786337912 -7.03581713034146e-16 -1.35570786770335e-12)
(1.18520786376627 -4.51610537835617e-16 -1.31265853731258e-12)
(1.18520786411332 -5.64639099395456e-16 -1.10380832552253e-12)
(1.18520786438505 -1.59268076826129e-16 -8.06938320329658e-13)
(1.18520786456377 -5.51921732670047e-16 -4.63609336796499e-13)
(1.1852078646449 -6.8645093024208e-16 -1.2453757612328e-13)
(1.18520786463146 -5.14753845614086e-16 1.96671003705447e-13)
(1.18520786453444 -4.04027506370981e-16 4.44671684371414e-13)
(1.18520786438008 -5.12984078260927e-16 2.73668256416441e-13)
(1.03997514016265 -5.00043021121958e-16 -0.000494813580402127)
(1.06973349301496 2.10799880710035e-15 -0.000194247297805883)
(1.08583159358907 -6.6569400808739e-15 -0.000180361362995876)
(1.10808673341605 -2.9049590410634e-16 -0.000156079189921868)
(1.12241315521893 6.81821392627241e-16 -0.000148258933812013)
(1.13995166173328 2.44084416053575e-15 -0.000130627558710157)
(1.1526511696874 4.29332015102925e-15 -0.000122095790214454)
(1.16639191750655 4.28711981189437e-15 -0.000105081736567356)
(1.17670042437511 3.33136982048915e-15 -9.25515058266038e-05)
(1.18645279944718 2.38977689704095e-15 -7.2599106149349e-05)
(1.19313512639248 -5.96486574412586e-15 -5.48311241446835e-05)
(1.19822103704457 -3.00394875706514e-15 -3.31047464937336e-05)
(1.2005585247274 6.88073267511355e-15 -1.52698769625066e-05)
(1.20132684668111 2.56782369783439e-15 1.06956737458224e-06)
(1.20034046884784 1.22244506152279e-15 1.15401869794237e-05)
(1.19862531988189 1.49453852358417e-15 1.8479892408796e-05)
(1.19627243894227 1.06409128840618e-15 2.0932646082391e-05)
(1.19392763237895 6.25739161195627e-16 2.1201882002932e-05)
(1.19160472555834 4.72000407129859e-15 1.93698042628001e-05)
(1.18961346721986 1.25001394273427e-15 1.69102671185432e-05)
(1.18788303778337 3.33259982538751e-16 1.38788249564541e-05)
(1.18653102614907 6.88803652242799e-16 1.10267056670219e-05)
(1.18545898142423 1.24331014925606e-16 8.27966908393481e-06)
(1.18469551872592 -2.33652047913549e-16 5.97533958636397e-06)
(1.18414912677976 -2.54065624824672e-16 3.98523019842819e-06)
(1.18381395338581 -7.48584454316037e-15 2.44212162542767e-06)
(1.18361803440316 -2.02130964766139e-15 1.21569175990361e-06)
(1.18354648101408 -1.00699323504599e-15 3.44754267430108e-07)
(1.18354830833805 -8.96543011502501e-16 -2.81712129618439e-07)
(1.18361030557946 -9.73347910270958e-16 -6.65513821864688e-07)
(1.18369980969676 -9.84255459002393e-16 -8.91596851299946e-07)
(1.18380853655173 -9.14080620934227e-15 -9.73240191100549e-07)
(1.18391760601769 -3.07037476623251e-15 -9.70492092424136e-07)
(1.18402362346243 -1.97094215341326e-15 -8.96867174784945e-07)
(1.1841172497675 3.46461575760273e-15 -7.9146352172676e-07)
(1.18419865524291 -5.78847039000189e-16 -6.63145604987284e-07)
(1.18426440790389 -9.88188840401176e-15 -5.34724137071932e-07)
(1.18431664573719 -2.81814325547925e-15 -4.09745849871144e-07)
(1.18435509386824 -1.79770009385092e-15 -2.99589503067758e-07)
(1.18438254499128 -1.62570593365084e-15 -2.03769975256863e-07)
(1.18440004241525 -1.55793861922403e-15 -1.26542347801143e-07)
(1.18441019474141 -1.44975574925606e-15 -6.5194110498587e-08)
(1.18441430215431 -7.11284199939463e-15 -2.01431715264962e-08)
(1.18441438673057 -3.04870578094796e-15 1.2009661762357e-08)
(1.1844115129827 -2.00672641923325e-15 3.23893655043442e-08)
(1.18440704579959 -2.50665298594423e-15 4.41434295452636e-08)
(1.18440166432562 1.06751431144768e-15 4.87792742488306e-08)
(1.18439615440246 -1.98098715604772e-15 4.87358117636123e-08)
(1.18439084380125 8.61512149956048e-16 4.52387175613781e-08)
(1.18438610010052 -2.37345606900205e-15 3.9912112466378e-08)
(1.1843820057814 4.8581800466762e-16 3.35304657338529e-08)
(1.18437866903837 -1.44177358210998e-15 2.7026223617127e-08)
(1.18437603522051 -2.85164354079365e-15 2.07680955040905e-08)
(1.18437407828421 1.57793116532875e-16 1.5192168333826e-08)
(1.1843726890488 -2.78415488079702e-15 1.03848830337468e-08)
(1.18437179082518 1.50654481788003e-16 6.47536519045403e-09)
(1.18437127127254 -2.98558116315685e-15 3.39295613063233e-09)
(1.18437105042718 -1.29271801516933e-16 1.10921223528215e-09)
(1.18437103758156 -3.16905332582479e-15 -5.08487750262044e-10)
(1.18437117074887 -2.54432688662278e-16 -1.55111242700123e-09)
(1.18437138859967 -3.1153471905997e-15 -2.15270521483983e-09)
(1.18437165190493 -2.4209142598472e-16 -2.40528217881977e-09)
(1.18437192521932 -2.23375452988197e-15 -2.41542389436103e-09)
(1.18437218870903 -1.16109619377928e-16 -2.25489198599617e-09)
(1.18437242610739 1.3783364437362e-16 -1.9962109211931e-09)
(1.18437263107142 -2.76723438728904e-15 -1.68492082798313e-09)
(1.18437279937335 -8.07698358265279e-16 -1.36284938320919e-09)
(1.18437293236061 -2.92778170372821e-15 -1.05287046173407e-09)
(1.18437303203141 -1.33768867812607e-15 -7.74135821900012e-10)
(1.18437310301269 -3.16849178217827e-15 -5.33778677915884e-10)
(1.1843731495739 -1.15555473649107e-15 -3.36774881175696e-10)
(1.18437317685728 -8.23828205016256e-16 -1.81329375691425e-10)
(1.18437318915002 -7.03853437274737e-16 -6.50622747402444e-11)
(1.18437319071063 -2.12377781834075e-15 1.75807581582063e-11)
(1.18437318484896 -2.99022106562038e-15 7.15052222702351e-11)
(1.18437317452316 -1.46691253074918e-15 1.0281316010694e-10)
(1.18437316184637 -2.97621293260606e-15 1.16563559175813e-10)
(1.18437314852658 -1.45201810685838e-15 1.1785355839026e-10)
(1.18437313564574 -1.29522595571859e-15 1.1055384597735e-10)
(1.18437312397688 -1.07990317465304e-15 9.81608867230475e-11)
(1.1843731138895 -2.75292738901327e-15 8.3117238321479e-11)
(1.18437310556914 -1.57805915232974e-15 6.7438971460275e-11)
(1.18437309897879 -2.87226113858315e-15 5.23574874231735e-11)
(1.18437309400195 -1.76615328767956e-15 3.87911919557138e-11)
(1.18437309042535 -2.82623226592773e-15 2.71374066194702e-11)
(1.18437308802524 -2.1551646464611e-15 1.76272514814467e-11)
(1.18437308655576 -1.47717528012183e-15 1.01822871876539e-11)
(1.18437308579714 -2.49272889977703e-15 4.67943194889712e-12)
(1.18437308554369 -1.75422274251699e-15 8.41485222366864e-13)
(1.18437308562741 -2.4387026550915e-15 -1.58299041285719e-12)
(1.18437308590752 -1.80511798234848e-15 -2.91086161307617e-12)
(1.18437308627888 -1.92605266767912e-15 -3.38496166987866e-12)
(1.18437308666166 -1.20318963895518e-15 -3.27442447060183e-12)
(1.18437308700306 -1.56281692525911e-15 -2.74756074326048e-12)
(1.18437308726894 -1.52772060551876e-15 -2.00747513341276e-12)
(1.18437308744221 -1.55849698370867e-15 -1.14734453793327e-12)
(1.18437308751851 -1.381969112312e-15 -2.9957648043478e-13)
(1.18437308750112 -1.41724913467239e-15 5.03508537639398e-13)
(1.18437308740132 -1.39147543516076e-15 1.12024221139179e-12)
(1.18437308724512 -1.43882948383894e-15 6.88598580025812e-13)
(1.03995081904584 -8.31290882953064e-16 -0.000777086639279423)
(1.06966642569916 -9.02822731733995e-16 -0.000298754778092415)
(1.08570580386087 -6.60558572428147e-15 -0.000286962163758464)
(1.10789632118888 -3.40065215962714e-18 -0.000240098032600414)
(1.12214407247696 1.17356678883426e-15 -0.000234720906325925)
(1.13958641537792 9.94456150004813e-15 -0.000201373084248195)
(1.15216014248889 7.19406695968456e-15 -0.000192173548927044)
(1.16573811868174 6.94480753806205e-15 -0.000161773816452491)
(1.17583396089578 5.30528585343715e-15 -0.000144502305328718)
(1.18532561491412 3.74263230689183e-15 -0.000110897900104166)
(1.19171292458188 -1.07906160612855e-14 -8.45460931390265e-05)
(1.19651081624778 -4.60844708409875e-15 -4.95358985499521e-05)
(1.19861060320362 1.25318785343078e-14 -2.29222818024699e-05)
(1.19922326606158 3.82381637472289e-15 2.72532804515374e-06)
(1.19816439068655 1.86191318076073e-15 1.81413881077092e-05)
(1.19644362767342 2.44439682557422e-15 2.89652158806583e-05)
(1.19412708679484 1.68754265192074e-15 3.23376180478247e-05)
(1.19184042382858 9.76964486997775e-16 3.28460163210832e-05)
(1.18958240202752 8.97097222986673e-15 2.98227670920882e-05)
(1.18765440884138 1.80543848115855e-15 2.61065094914772e-05)
(1.18598074915015 4.70265420773526e-16 2.13316366355429e-05)
(1.1846772868113 1.15629661658501e-15 1.69872049092879e-05)
(1.18364499944515 1.83883991269258e-16 1.26975232705015e-05)
(1.18291306008478 -3.9553760916473e-16 9.18086772048746e-06)
(1.18239070819073 -4.13060537164259e-16 6.08407099142397e-06)
(1.18207318673295 -1.11103705330666e-14 3.7307942035688e-06)
(1.18188953175826 -2.85057053838239e-15 1.82659464862178e-06)
(1.18182591440676 -1.56667464523081e-15 5.0307180812005e-07)
(1.18183224795233 -1.45371274240247e-15 -4.6775673088817e-07)
(1.18189619429074 -1.58481731096076e-15 -1.04536340698341e-06)
(1.18198578633975 -1.59768002106338e-15 -1.39505773713101e-06)
(1.18209335490659 -9.79484311810173e-15 -1.51102414389013e-06)
(1.18220049140617 -4.48480706535987e-15 -1.5065934963199e-06)
(1.18230418985248 -3.11276251935624e-15 -1.38663054073189e-06)
(1.18239538562756 4.8505462636348e-15 -1.22386232248962e-06)
(1.18247445397166 -1.17675325836934e-15 -1.02221939018339e-06)
(1.18253808677872 -1.11575556294313e-14 -8.24301808806127e-07)
(1.1825884980838 -4.10301747058403e-15 -6.29638584106408e-07)
(1.18262543925091 -2.84593329273624e-15 -4.60202502481143e-07)
(1.18265170304988 -2.62578130810348e-15 -3.11629363847696e-07)
(1.1826683078293 -2.52192645252187e-15 -1.9312462234941e-07)
(1.18267782768807 -2.34364889413431e-15 -9.83134482976096e-08)
(1.18268151975909 -8.82864042760626e-15 -2.94258285159161e-08)
(1.18268136360997 -4.61157258990192e-15 2.00971091461547e-08)
(1.18267838286893 -3.18314431473525e-15 5.10287806342501e-08)
(1.18267390626766 -4.09499144290216e-15 6.90152570101612e-08)
(1.18266858119911 1.96587556894726e-15 7.57981934752166e-08)
(1.1826631682018 -3.43337270275363e-15 7.5607762190675e-08)
(1.18265797490964 1.56220158974622e-15 6.99759469581702e-08)
(1.18265335431329 -4.08305317292708e-15 6.16841777511311e-08)
(1.18264937847695 9.65046501367736e-16 5.17062352408885e-08)
(1.18264614911128 -2.47855325885715e-15 4.16429167757239e-08)
(1.18264360783158 -4.72096339851218e-15 3.19268885118086e-08)
(1.18264172721514 4.74985673939751e-16 2.33264716955802e-08)
(1.18264039817639 -4.71318296493894e-15 1.58914830685832e-08)
(1.18263954525764 4.33041258147469e-16 9.87772545714716e-09)
(1.18263905790715 -5.06714041369525e-15 5.12535842826623e-09)
(1.18263885829126 -1.63802420026274e-15 1.62448163504234e-09)
(1.18263885783792 -5.34412060249985e-15 -8.60232843090078e-10)
(1.18263899665877 -1.89667249795721e-16 -2.44861039870649e-09)
(1.18263921525381 -5.24677968465865e-15 -3.36545973224759e-09)
(1.18263947596394 -1.80451783049244e-15 -3.73990617326394e-09)
(1.18263974461258 -3.74155482874412e-15 -3.74697064842181e-09)
(1.18264000236826 2.16020592717816e-16 -3.48935290159317e-09)
(1.18264023370276 6.07135089081898e-16 -3.0850441973093e-09)
(1.18264043279708 -4.65531833518238e-15 -2.59924242726247e-09)
(1.18264059575769 -6.57697107951893e-16 -2.09996476599314e-09)
(1.18264072412379 -4.90883002929879e-15 -1.61929392463715e-09)
(1.18264081997058 -2.19028191669393e-15 -1.18876892174331e-09)
(1.18264088792443 -5.28394064980918e-15 -8.17384946100466e-10)
(1.18264093219848 -2.06097436463326e-15 -5.13969137090739e-10)
(1.18264095784794 -1.43091351797819e-15 -2.74511629467523e-10)
(1.18264096905592 -1.20319839543977e-15 -9.60247740854217e-11)
(1.18264096997374 -3.55488824715295e-15 3.08066490977571e-11)
(1.18264096381036 -4.9094094262808e-15 1.13119612688973e-10)
(1.18264095343276 -2.27284102298527e-15 1.60769063608839e-10)
(1.18264094087501 -4.92984374591472e-15 1.81292263321273e-10)
(1.18264092778061 -2.24601944539161e-15 1.82800728001969e-10)
(1.18264091518083 -2.01270613555185e-15 1.71085276691754e-10)
(1.18264090381108 -1.70346551936559e-15 1.51677131211392e-10)
(1.1826408940143 -4.57781670538406e-15 1.28219333811594e-10)
(1.18264088595892 -2.39142539806964e-15 1.03897896017175e-10)
(1.18264087959816 -4.7313621540211e-15 8.05290212741941e-11)
(1.18264087481148 -2.58282775886458e-15 5.95689674196574e-11)
(1.18264087138561 -4.63573077180091e-15 4.15759076209425e-11)
(1.18264086909953 -4.14420272033837e-15 2.69304045956392e-11)
(1.18264086771176 -2.53140184762267e-15 1.54708893414212e-11)
(1.18264086700769 -4.09824781576201e-15 7.03003338239224e-12)
(1.18264086678694 -2.78844871551375e-15 1.14739871671721e-12)
(1.18264086688665 -4.00357732037071e-15 -2.54517719245035e-12)
(1.18264086717066 -2.16907068532808e-15 -4.55753258922392e-12)
(1.18264086753778 -3.11076493936976e-15 -5.25176382529168e-12)
(1.18264086791136 -1.98458002857503e-15 -5.05525764500667e-12)
(1.18264086824114 -2.54815402465989e-15 -4.21754601137379e-12)
(1.18264086849485 -2.60314921267991e-15 -3.06465411723069e-12)
(1.1826408686567 -2.53790134295971e-15 -1.72258418908052e-12)
(1.18264086872312 -2.07872353074241e-15 -4.0986084798517e-13)
(1.18264086869787 -2.29663839102335e-15 8.36440011975708e-13)
(1.18264086859242 -2.33337179093427e-15 1.78434667051317e-12)
(1.18264086843259 -2.33854515886527e-15 1.09135491501356e-12)
(1.03991459357241 -1.18583472224218e-15 -0.00105840560261241)
(1.0695682806147 -3.12995895316635e-15 -0.000403702695461498)
(1.08552211862935 -7.53224854994627e-15 -0.000392084496178409)
(1.10761915865366 6.47961239008649e-16 -0.000324110044034567)
(1.12175162817627 1.72544476565562e-15 -0.000319843236122824)
(1.1390527955084 6.99340782940546e-15 -0.000271482570487552)
(1.15144034138015 9.67858701932057e-15 -0.000260615043199744)
(1.1647769906889 9.45668747378549e-15 -0.000216957741267503)
(1.17455788719687 7.03802643285484e-15 -0.000194099120793812)
(1.18366725182447 4.90889288294389e-15 -0.000146783886826883)
(1.18962952073762 -1.71396907919185e-14 -0.00011150650658265)
(1.19402241964096 -5.58812957005839e-15 -6.36819944952691e-05)
(1.19579679761496 8.15309354662062e-15 -2.87595439515194e-05)
(1.19620276923099 4.29890103360055e-15 5.33887459826776e-06)
(1.1950526045341 2.31132587439647e-15 2.51110068372049e-05)
(1.19333106914554 3.36878087664886e-15 3.92762445793345e-05)
(1.19106953546492 2.22009593067549e-15 4.33308838589719e-05)
(1.18886641248004 1.26413253979878e-15 4.39200455474815e-05)
(1.18670019530944 5.45926505095468e-15 3.97083097714115e-05)
(1.18486111955836 1.8921149588614e-15 3.47538475622742e-05)
(1.18326695432985 5.08671731233437e-16 2.83159692659172e-05)
(1.18203131123726 1.65547993024651e-15 2.25451971088616e-05)
(1.18105443972312 1.9808126405591e-16 1.67978761153299e-05)
(1.18036634085961 -5.80118810477563e-16 1.21334411120411e-05)
(1.1798773264749 -5.69879674553979e-16 7.99746646159102e-06)
(1.17958419413332 -6.87228571975217e-15 4.88335255845706e-06)
(1.1794173918305 -3.12415915100881e-15 2.34818134196087e-06)
(1.17936458793634 -2.02576832142031e-15 6.0475398437812e-07)
(1.17937696348281 -1.98870368310707e-15 -6.81679190913906e-07)
(1.17944340801242 -2.18111400864937e-15 -1.43459774704947e-06)
(1.17953292873911 -2.1895862693308e-15 -1.89285659977615e-06)
(1.17963871820665 -7.02612064044561e-15 -2.03492918831906e-06)
(1.17974302631489 -5.48597035868925e-15 -2.02298641932108e-06)
(1.1798433882531 -4.10783177117729e-15 -1.85500654610617e-06)
(1.17993111933876 1.88354016458049e-15 -1.63444893744946e-06)
(1.1800068770478 -2.22863342839575e-15 -1.36123339090334e-06)
(1.18006752176166 -8.94932851890634e-15 -1.09592078507902e-06)
(1.1801153694683 -4.82713928191585e-15 -8.34550130169056e-07)
(1.18015020414833 -3.77221186029064e-15 -6.08594484807852e-07)
(1.18017481529143 -3.57228471123526e-15 -4.10164290840398e-07)
(1.18019018352604 -3.44081740500698e-15 -2.52807451986853e-07)
(1.18019883257821 -3.1903183038484e-15 -1.26758051344933e-07)
(1.18020195777195 -6.97304500346084e-15 -3.57503907567521e-08)
(1.1802014783052 -5.8594450615069e-15 2.97114846206709e-08)
(1.18019835993893 -4.2208387300352e-15 7.01850743425994e-08)
(1.18019388035475 -5.66903988294547e-15 9.36456443446938e-08)
(1.18018864241221 -1.06424641484419e-15 1.02118304639861e-07)
(1.18018337134861 -5.19203731747634e-15 1.01494853774245e-07)
(1.18017834680287 -1.74493542768978e-15 9.36247012823152e-08)
(1.18017390160814 -6.10551806735718e-15 8.23563138789054e-08)
(1.18017009351127 -2.5403001890293e-15 6.8862109469923e-08)
(1.18016701541471 -3.71067861623715e-15 5.53531971104676e-08)
(1.18016460394299 -6.6563042682115e-15 4.23248458505148e-08)
(1.1801628299535 -3.13378443306765e-15 3.08435885760403e-08)
(1.18016158466349 -6.88567359223517e-15 2.09239404360863e-08)
(1.18016079447717 -3.25570641568019e-15 1.29306793804868e-08)
(1.18016035144887 -7.43929649137102e-15 6.61864636888317e-09)
(1.18016018080083 -3.78155325750719e-15 1.98886527107913e-09)
(1.18016019700413 -7.77620667544691e-15 -1.29178221045939e-09)
(1.18016034313868 -4.03365128632835e-15 -3.37420333258757e-09)
(1.18016056227028 -7.61410583649291e-15 -4.56869996488652e-09)
(1.18016081893996 -3.98365940192169e-15 -5.04119527742762e-09)
(1.18016108074259 -5.40252812671883e-15 -5.03085162122133e-09)
(1.18016133024065 -3.27627804731702e-15 -4.67024277344449e-09)
(1.18016155292778 -2.95535922145443e-15 -4.11962737620207e-09)
(1.1801617437057 -6.78428601555253e-15 -3.46283737676324e-09)
(1.18016189913597 -4.26493402767463e-15 -2.79195520845892e-09)
(1.18016202101464 -7.04387979035056e-15 -2.14759706838224e-09)
(1.18016211151449 -5.03421396323008e-15 -1.57244980482846e-09)
(1.18016217525257 -7.53304596843644e-15 -1.07706189319863e-09)
(1.18016221635641 -4.94599753347411e-15 -6.73497947971608e-10)
(1.18016223975417 -4.2466883319895e-15 -3.55498329790452e-10)
(1.18016224947943 -3.86880268041133e-15 -1.19240297975029e-10)
(1.1801622495311 -5.09624222346232e-15 4.82278259303906e-11)
(1.1801622429756 -6.83529864966413e-15 1.56282446364231e-10)
(1.18016223255096 -5.01202358963407e-15 2.18369435714203e-10)
(1.18016222018033 -6.98061106670287e-15 2.44433617101506e-10)
(1.18016220741717 -4.9629674473888e-15 2.45431907492913e-10)
(1.18016219522228 -4.79042887184031e-15 2.28980481093208e-10)
(1.18016218427902 -4.41138455796617e-15 2.02515967926736e-10)
(1.18016217489381 -6.51995364638678e-15 1.70807278161002e-10)
(1.18016216721181 -5.10260253172171e-15 1.38118983908305e-10)
(1.18016216117315 -6.65373051139122e-15 1.0680457877412e-10)
(1.18016215665217 -5.21833659463228e-15 7.88093432706851e-11)
(1.18016215343602 -6.48731560474265e-15 5.48235930332609e-11)
(1.18016215130785 -5.93595464769157e-15 3.53519901998069e-11)
(1.18016215003256 -4.56385036619285e-15 2.01489700954539e-11)
(1.18016214940296 -5.75712919189918e-15 8.98917324846537e-12)
(1.18016214922625 -4.75788097689881e-15 1.23741338868033e-12)
(1.18016214934683 -5.58426597538211e-15 -3.59526928387918e-12)
(1.18016214963506 -3.49539100533373e-15 -6.20151722343846e-12)
(1.18016214999527 -4.29879085153414e-15 -7.05694632152887e-12)
(1.18016215035526 -3.0687853375673e-15 -6.74208260526722e-12)
(1.18016215066827 -3.53761709012637e-15 -5.58069655510091e-12)
(1.18016215090462 -3.65579222545462e-15 -4.01280484008823e-12)
(1.18016215105029 -3.46590615100686e-15 -2.20044530911502e-12)
(1.18016215110286 -3.0124558267956e-15 -4.4075923084789e-13)
(1.18016215106669 -3.15912680221667e-15 1.23051605615118e-12)
(1.18016215095346 -3.2264802754348e-15 2.49134781306962e-12)
(1.18016215078873 -3.19953337140673e-15 1.50967828703597e-12)
(1.03986639605242 -1.57501813454933e-15 -0.00132722484693121)
(1.06944003648761 -5.08714695418427e-15 -0.00050499898843667)
(1.08528381568532 -2.86599082725543e-15 -0.000491073492853135)
(1.10726033503972 1.72692573870159e-15 -0.000404704311472616)
(1.12124272284309 2.3114251503291e-15 -0.000399760212588551)
(1.13835872579396 1.30984060247932e-14 -0.000337869753428233)
(1.15050022214253 1.23023695276074e-14 -0.000324068069939355)
(1.16351703711744 1.18258592673207e-14 -0.000267827261713009)
(1.17288237579979 8.47087574200399e-15 -0.000238496581065793)
(1.1814949757424 6.03690901374308e-15 -0.00017800297536916)
(1.18691900349248 -1.59827911993307e-14 -0.000133804347325973)
(1.19081571754095 -5.49127104114477e-15 -7.44014241496831e-05)
(1.1922051747556 6.91446853038864e-15 -3.21642812234772e-05)
(1.19237624068115 4.56382687559468e-15 8.93725911996476e-06)
(1.19112985160118 2.58946049932386e-15 3.21700049629986e-05)
(1.18941779034429 4.1963720375077e-15 4.88854134519834e-05)
(1.18722952399137 2.63240284247303e-15 5.33231167845434e-05)
(1.18513167581854 1.4703347275742e-15 5.38059459103594e-05)
(1.1830791730221 4.12403981753247e-15 4.84684192229903e-05)
(1.18134940913723 1.80277304205503e-15 4.23542674730371e-05)
(1.17985256305665 4.55219598566392e-16 3.44259599380897e-05)
(1.17869971398222 2.21947646023479e-15 2.7371247560275e-05)
(1.17779031563528 1.42988132612109e-16 2.03339773801568e-05)
(1.17715544591622 -7.94545910289952e-16 1.4650050573719e-05)
(1.17670675890739 -7.20447025318716e-16 9.60269098442305e-06)
(1.17644298663649 -4.59402555973938e-15 5.82074284714768e-06)
(1.17629632447701 -3.24570452343595e-15 2.73925989834676e-06)
(1.17625629490634 -2.40772165157105e-15 6.3385973089802e-07)
(1.17627564808156 -2.5089723807525e-15 -9.19353243419766e-07)
(1.17634478604833 -2.76650406616625e-15 -1.81757536904644e-06)
(1.17643391102042 -2.75955910660287e-15 -2.36135707807112e-06)
(1.17653727245454 -5.25507478924293e-15 -2.51853585185384e-06)
(1.17663792381419 -6.39529960188663e-15 -2.4923712463473e-06)
(1.17673405833419 -4.96790073137782e-15 -2.27655560395305e-06)
(1.17681744947728 -5.85613007732457e-16 -2.00028227863738e-06)
(1.1768890928751 -3.39572169689393e-15 -1.66085174201291e-06)
(1.17694604726643 -7.32222703805291e-15 -1.33369790030258e-06)
(1.17699074630295 -5.37530626085104e-15 -1.01222218359981e-06)
(1.17702300732386 -4.60201334124147e-15 -7.35606809347502e-07)
(1.17704561044717 -4.47071138749585e-15 -4.93057940156297e-07)
(1.17705948570458 -4.31665974646742e-15 -3.01510789103074e-07)
(1.17706709188675 -3.9843542366526e-15 -1.48309694707249e-07)
(1.17706954620362 -6.20585165837047e-15 -3.82389685931988e-08)
(1.17706869258049 -7.07180489154677e-15 4.07205664887335e-08)
(1.17706542489281 -5.1212048837442e-15 8.9094516289249e-08)
(1.17706095774218 -7.25867288766101e-15 1.16870657433975e-07)
(1.17705583934561 -3.09673723254791e-15 1.26409552719693e-07)
(1.17705075190808 -7.10478517173839e-15 1.25028887728382e-07)
(1.17704594110317 -4.1368377848233e-15 1.1489831834502e-07)
(1.17704171549875 -8.28449747686499e-15 1.00773795704345e-07)
(1.17703811573197 -5.10305244053172e-15 8.4018932500552e-08)
(1.17703522434294 -4.93223698316164e-15 6.73561121639407e-08)
(1.17703297221877 -8.68874575044003e-15 5.13401791525921e-08)
(1.17703132844262 -5.73389026322335e-15 3.72804907129452e-08)
(1.17703018487055 -9.10265088590575e-15 2.51602998728467e-08)
(1.17702947040358 -5.9726858766838e-15 1.54265482001329e-08)
(1.17702908044717 -9.95313665739871e-15 7.75776905873199e-09)
(1.17702894408144 -6.56731955823909e-15 2.15586847122593e-09)
(1.17702897958761 -1.03069402401051e-14 -1.79945232666045e-09)
(1.17702913372505 -6.8309127478445e-15 -4.29163258166379e-09)
(1.17702935271375 -1.00396226721458e-14 -5.70607943576105e-09)
(1.17702960379236 -6.76439312559314e-15 -6.24364290038557e-09)
(1.1770298567169 -7.00847133289539e-15 -6.1994699636208e-09)
(1.17703009574174 -5.71304985933498e-15 -5.73346505686873e-09)
(1.17703030759245 -5.60256359508041e-15 -5.0423343790883e-09)
(1.17703048803266 -9.01604641584922e-15 -4.22652874448632e-09)
(1.17703063416093 -6.58388031381321e-15 -3.39851513356627e-09)
(1.17703074806927 -9.22477108267241e-15 -2.6062868085477e-09)
(1.17703083203375 -7.30010986387963e-15 -1.90165156201087e-09)
(1.1770308906466 -9.82297383249648e-15 -1.29629658102238e-09)