/*--------------------------------*- C++ -*----------------------------------*\
| =========                 |                                                 |
| \\      /  F ield         | OpenFOAM: The Open Source CFD Toolbox           |
|  \\    /   O peration     | Version:  2.3.x                                 |
|   \\  /    A nd           | Web:      www.OpenFOAM.org                      |
|    \\/     M anipulation  |                                                 |
\*---------------------------------------------------------------------------*/
FoamFile
{
    version     2.0;
    format      ascii;
    class       volVectorField;
    location    "20000";
    object      UMean;
}
// * * * * * * * * * * * * * * * * * * * * * * * * * * * * * * * * * * * * * //

dimensions      [0 1 -1 0 0 0 0];

internalField   nonuniform List<vector> 
10000
(
(1.0397846109123 -1.74829626479239e-16 -0.000195749166282766)
(1.06923521811925 6.05286395023831e-15 -7.73561720494408e-05)
(1.08496775130281 -7.9736316085312e-15 -6.92376829014272e-05)
(1.10678843994152 -2.01692897932749e-16 -6.15821395235579e-05)
(1.12068442184781 2.32462591503713e-16 -5.67472422767515e-05)
(1.13779850268004 -5.8277444229781e-15 -5.11379610164495e-05)
(1.15011134086928 1.36736213413304e-15 -4.67878130305888e-05)
(1.16352359885958 1.45781537457253e-15 -4.10407566725718e-05)
(1.17357836546837 1.13930952743514e-15 -3.56358697380668e-05)
(1.18317768430553 9.8483775250626e-16 -2.84994729426335e-05)
(1.18980888422294 -1.93674555488486e-15 -2.13618863048958e-05)
(1.19494492214198 -1.00827335256445e-15 -1.33198418561898e-05)
(1.19740416370368 2.3929756456346e-15 -6.26927812044932e-06)
(1.19833984134918 9.51908283642145e-16 -1.12367790560557e-07)
(1.19753695632407 4.11396181426777e-16 4.06292112435867e-06)
(1.19600439929567 5.23513345298089e-16 6.70676742424826e-06)
(1.19382031099326 3.702862735107e-16 7.76608378176417e-06)
(1.19162423124701 2.14916304307799e-16 7.88535144677689e-06)
(1.18942645471658 1.99650663782338e-15 7.26973752077992e-06)
(1.18753552140844 5.47289154421264e-16 6.35151849270646e-06)
(1.18588168485249 1.2629904255004e-16 5.25144518054633e-06)
(1.18458420561345 2.08746455206321e-16 4.18029562795917e-06)
(1.1835476362306 3.25148444742602e-17 3.16885918537664e-06)
(1.18280346788484 -8.55109855375484e-17 2.3004029886016e-06)
(1.18226368627666 -7.8618091725263e-17 1.56208805262951e-06)
(1.18192527914763 -7.36849285154937e-15 9.77046119143093e-07)
(1.18171933836303 -7.77402459733288e-16 5.18380099008197e-07)
(1.18163322651608 -3.50739766660249e-16 1.8394845855994e-07)
(1.18161820910964 -3.32605116992807e-16 -5.38384602352216e-08)
(1.18166253191698 -3.692180084692e-16 -2.061836654108e-07)
(1.18173490485912 -3.75004171672945e-16 -2.95730015239528e-07)
(1.18182777286105 -7.05496270258902e-15 -3.34384483661689e-07)
(1.18192293191524 -1.16585697736546e-15 -3.38443900685341e-07)
(1.18201715618131 -6.97536156516303e-16 -3.17714972645441e-07)
(1.18210129194968 9.54380055992409e-16 -2.82523178045915e-07)
(1.18217531137088 -1.76320609967139e-16 -2.39680229612364e-07)
(1.18223574180351 -6.72354613010221e-15 -1.94656336002075e-07)
(1.18228431463955 -1.00197397540352e-15 -1.51453702164387e-07)
(1.18232061119139 -6.2588164319635e-16 -1.1196626886353e-07)
(1.1823470574135 -5.63959936028934e-16 -7.82391679292975e-08)
(1.18236440138089 -5.35556520224028e-16 -4.98400865471001e-08)
(1.18237498279141 -4.87825281293217e-16 -2.78864193328205e-08)
(1.18237997959328 -6.17019249089989e-15 -1.08962256161884e-08)
(1.18238113641162 -1.12646030818326e-15 7.32046005724296e-10)
(1.1823794527737 -6.85686035020276e-16 8.99833536020082e-09)
(1.18237616805983 -8.55899241995442e-16 1.33641724381526e-08)
(1.1823718732886 5.02173699373404e-16 1.59433589073034e-08)
(1.18236730523163 -6.3389129015634e-16 1.60061962732154e-08)
(1.18236280870314 3.51959558724672e-16 1.55307056883767e-08)
(1.18235869499698 -8.0274606072238e-16 1.35708388938961e-08)
(1.18235510825025 1.82032463193339e-16 1.19218133364467e-08)
(1.18235210991446 -4.82245764790399e-16 9.41308980139074e-09)
(1.18234973058093 -9.72733927871602e-16 7.70452512770981e-09)
(1.18234789546819 7.89599754611759e-17 5.44388501498921e-09)
(1.1823465829055 -9.23880539728934e-16 4.18170122925707e-09)
(1.18234564706443 -1.34219835301688e-17 2.45930465614191e-09)
(1.18234512223004 -1.01803078502978e-15 1.66116113240374e-09)
(1.18234480802495 -1.48914911268792e-16 4.76737471406643e-10)
(1.18234474275449 -1.07809797517821e-15 2.2331845366369e-10)
(1.18234480868003 -2.29488486667064e-16 -5.43018630302477e-10)
(1.18234495121878 -1.09013855896036e-15 -4.75864033753579e-10)
(1.18234515194506 -2.76949088832524e-16 -8.90067937426016e-10)
(1.18234536676937 -7.82400734324574e-16 -4.74889364606452e-10)
(1.1823455332802 -1.07236858265269e-16 -8.73021488333995e-10)
(1.18234574447417 5.56364811226132e-17 -5.08581614196271e-10)
(1.18234594622491 -8.97160180528161e-16 -8.44970808243644e-10)
(1.1823461006346 -2.48230112974385e-16 -2.72856038620009e-10)
(1.18234618377218 -9.7167728493006e-16 -4.97782094000504e-10)
(1.18234630140136 -3.24688838467811e-16 -1.02138589081767e-10)
(1.18234634681347 -1.01824179008494e-15 -4.16091257875777e-10)
(1.18234640196268 -4.24479993418681e-16 1.90492017595832e-11)
(1.1823464458728 -2.47633581128226e-16 -2.92576603295895e-10)
(1.18234646600731 -1.70005113124457e-16 1.3982224191323e-10)
(1.18234645876204 -6.71554166737221e-16 -1.87363720814667e-10)
(1.18234646981717 -9.78287667120909e-16 2.04826996419231e-10)
(1.18234644651319 -4.44197363067088e-16 -1.53426089629387e-10)
(1.18234645406028 -9.66722151450961e-16 2.29283168714851e-10)
(1.18234642194919 -4.76175698163102e-16 -1.27880113190889e-10)
(1.18234642358346 -3.17676255384911e-16 2.64840071369223e-10)
(1.18234636738614 -2.95550912775203e-16 -8.07443770024514e-11)
(1.1823463825883 -8.497108832264e-16 2.44760164544594e-10)
(1.18234633333043 -5.02306362999832e-16 -1.48924999585949e-10)
(1.18234635060742 -9.01658785764606e-16 1.56380484126421e-10)
(1.18234637210121 -5.56243561238618e-16 -2.40473329704214e-10)
(1.18234637494558 -8.89478272619337e-16 1.80735003207219e-10)
(1.18234636652977 2.51996795435322e-16 -1.68711846215225e-10)
(1.18234637512988 -4.74234199825275e-16 1.94640134093848e-10)
(1.18234635971197 -7.80506144555865e-16 -1.65855503139195e-10)
(1.18234636429014 -5.30553750355739e-16 2.63328224391677e-10)
(1.18234631992523 -7.50702423830502e-16 -1.11650142128136e-10)
(1.18234635270643 -1.11476592009664e-15 1.10909621638983e-10)
(1.18234633934027 -5.8634995685203e-16 -2.18974335856266e-10)
(1.18234638275046 -3.21880943708598e-16 1.50366258106063e-10)
(1.18234635612753 -4.41192649639057e-16 -1.92159400731584e-10)
(1.18234636112911 -5.5964022539411e-17 2.50838352256083e-10)
(1.18234634686634 -4.35597222716122e-16 -1.45335761473716e-10)
(1.18234636484134 -6.01602399209004e-16 8.04237098567508e-11)
(1.18234638466915 -4.07480380888957e-16 -2.82868353384142e-10)
(1.18234634705143 -2.98681580796159e-16 2.96762583486868e-10)
(1.1823463869861 -4.0370412253049e-16 -1.89867216721524e-10)
(1.03977564974679 -4.82884700342049e-16 -0.000491549012887692)
(1.06920728247736 2.07158980433266e-15 -0.000191062709822011)
(1.08491294017153 -6.60327087807535e-15 -0.000176502675201479)
(1.10670398570301 -3.13250963897862e-16 -0.000151956023271213)
(1.12056455955985 6.56238517507125e-16 -0.000144048481879586)
(1.13763534796131 2.34620683598271e-15 -0.000126578458325505)
(1.14989193678375 4.10258373536882e-15 -0.00011827648847671)
(1.16323124774614 4.06377617561463e-15 -0.000101727777419357)
(1.17319057574013 3.15844770720893e-15 -8.9724852476395e-05)
(1.18267198448717 2.73555443091108e-15 -7.0533998014299e-05)
(1.18916817336465 -5.53526991046249e-15 -5.35686276111337e-05)
(1.19417012546069 -2.76425935783319e-15 -3.27423839018921e-05)
(1.19651638095567 6.82275130819014e-15 -1.56858018272169e-05)
(1.19737602584126 2.5881059795232e-15 1.40144387577064e-08)
(1.19653568115429 1.12318702751387e-15 1.00978747597205e-05)
(1.19499738747379 1.46241495259187e-15 1.68565889225027e-05)
(1.19282778792954 1.02541074341395e-15 1.93222751268986e-05)
(1.19065695703244 5.92660995820247e-16 1.97178562147522e-05)
(1.18848802175873 5.62454742048909e-15 1.80917169486233e-05)
(1.18662553227736 1.47407375700416e-15 1.58620460649954e-05)
(1.1849973847411 3.37122266138281e-16 1.30687549494362e-05)
(1.18372199007703 5.83966897948712e-16 1.04336456008175e-05)
(1.18270358885936 8.44610953731155e-17 7.88258378546806e-06)
(1.18197390387223 -2.42361513534624e-16 5.73854414949329e-06)
(1.18144523876948 -2.25839488714727e-16 3.88077838035678e-06)
(1.18111506894274 -7.99434200962149e-15 2.43513069702691e-06)
(1.1809149269439 -1.93755240542595e-15 1.28208988205787e-06)
(1.1808326501929 -9.62733012376586e-16 4.56452049398532e-07)
(1.18081990175801 -9.25989322804237e-16 -1.41400414240143e-07)
(1.18086531914931 -1.02986373876179e-15 -5.16089180495232e-07)
(1.18093792283008 -1.0517999688466e-15 -7.41804843101716e-07)
(1.18103043521564 -7.97790148154842e-15 -8.3503368657274e-07)
(1.18112486306999 -3.0411630015399e-15 -8.46233019118525e-07)
(1.18121815754871 -1.92735145526144e-15 -7.92763976943838e-07)
(1.18130128889458 2.7143568821575e-15 -7.05396132726047e-07)
(1.18137432500837 -5.362712256263e-16 -5.97696380209149e-07)
(1.18143384985483 -7.86260505525115e-15 -4.85486549792223e-07)
(1.18148163363337 -2.58986260704176e-15 -3.77476590754227e-07)
(1.181517271046 -1.73074903296216e-15 -2.78909478383293e-07)
(1.18154319178592 -1.56899577744272e-15 -1.9488755924406e-07)
(1.18156013463344 -1.49104415690711e-15 -1.23844736490312e-07)
(1.18157042694638 -1.36431154370502e-15 -6.93894132864217e-08)
(1.18157522759567 -7.31190625610774e-15 -2.67240466711315e-08)
(1.18157626525023 -2.9596234222689e-15 1.85653285988622e-09)
(1.18157452132523 -1.89519929276467e-15 2.28233244032214e-08)
(1.18157122083322 -2.39007181788679e-15 3.32410516707931e-08)
(1.18156694035092 1.44467757841662e-15 4.01003228939889e-08)
(1.18156240631194 -1.80428366404592e-15 3.9737247188823e-08)
(1.18155795404351 1.013614203658e-15 3.90348578804299e-08)
(1.18155388905 -2.27532277795098e-15 3.36009326859235e-08)
(1.18155035013748 5.40167719436583e-16 3.00106136555505e-08)
(1.18154739630174 -1.36598249477035e-15 2.31981205100985e-08)
(1.18154505569477 -2.72643094313233e-15 1.94787115193131e-08)
(1.18154325336735 2.55366075926624e-16 1.3286661737433e-08)
(1.18154196684858 -2.60762987236587e-15 1.06899974524622e-08)
(1.18154105154252 -6.77856237823865e-18 5.85557754811643e-09)
(1.18154054084572 -2.86994398417076e-15 4.38836991070849e-09)
(1.18154023704373 -3.85599233184096e-16 9.18189850220155e-10)
(1.18154017792736 -3.03473136514424e-15 7.97976391000564e-10)
(1.18154024740494 -6.10733338403657e-16 -1.61304947207985e-09)
(1.18154039064463 -3.06596217640792e-15 -9.47311490546694e-10)
(1.18154059138912 -7.44158840755114e-16 -2.48845726301714e-09)
(1.18154080495246 -2.19675624220344e-15 -9.06066702981541e-10)
(1.18154096952022 -2.76056144154969e-16 -2.4347722794119e-09)
(1.18154117804124 1.60407194090651e-16 -1.01215235812118e-09)
(1.18154137755154 -2.53151766241115e-15 -2.38464823729276e-09)
(1.18154152987779 -6.69721462838988e-16 -4.17109639036139e-10)
(1.18154161168518 -2.73134697410075e-15 -1.49756862363764e-09)
(1.1815417272978 -8.82765343033571e-16 1.19758955448493e-11)
(1.18154177148274 -2.86002709947548e-15 -1.29858018173371e-09)
(1.18154182537291 -1.16256664007932e-15 2.99651880036197e-10)
(1.18154186877332 -6.83962756216932e-16 -9.96840288412575e-10)
(1.18154188831126 -4.71086791942102e-16 6.17478722109622e-10)
(1.1815418809584 -1.88783957119691e-15 -7.41156625223887e-10)
(1.18154189165277 -2.7356876076815e-15 7.89404609785279e-10)
(1.1815418684282 -1.21945679195459e-15 -6.62862270106117e-10)
(1.18154187584696 -2.7107383048006e-15 8.52994205287592e-10)
(1.18154184398668 -1.31007015218941e-15 -6.00535077844405e-10)
(1.18154184556288 -8.79711766612525e-16 9.41841306508785e-10)
(1.18154178990138 -8.22667218715342e-16 -4.6741503313053e-10)
(1.18154180478469 -2.38588549077487e-15 8.8151922804652e-10)
(1.1815417558525 -1.38765829773239e-15 -6.31116582535621e-10)
(1.1815417729986 -2.52534894762219e-15 6.43659465809588e-10)
(1.18154179462629 -1.5379760535961e-15 -8.6662374326679e-10)
(1.1815417975206 -2.48209315313263e-15 7.11619139077292e-10)
(1.18154178935668 -1.79958345291438e-15 -6.9022472078633e-10)
(1.1815417979171 -1.35304370443474e-15 7.59331966607681e-10)
(1.18154178261305 -2.18471340659315e-15 -6.89476377702547e-10)
(1.18154178720242 -1.46964416148529e-15 9.37171181190654e-10)
(1.18154174320631 -2.10584972535672e-15 -5.36831075439754e-10)
(1.18154177525943 -1.45352680162337e-15 5.29385391291464e-10)
(1.18154176224212 -1.60842457059293e-15 -8.15431043790687e-10)
(1.18154180571495 -8.87857504640407e-16 6.26583174853811e-10)
(1.18154177912939 -1.22614341194803e-15 -7.2227169821272e-10)
(1.18154178406228 -1.10676369649428e-15 8.56259042789802e-10)
(1.18154177017339 -1.24063640120778e-15 -5.86387154374276e-10)
(1.18154178804581 -1.07326740980667e-15 4.2443273680309e-10)
(1.18154180755062 -1.11450500797901e-15 -9.29274731066525e-10)
(1.18154176997364 -1.09046086233767e-15 9.51904297840013e-10)
(1.1815418103652 -1.13538126828585e-15 -6.70241103124299e-10)
(1.03975188712205 -8.00215348990948e-16 -0.000771989888704103)
(1.06914052162058 -8.9445506152108e-16 -0.000293789163172436)
(1.08478713106122 -6.55028876279236e-15 -0.000280909925855371)
(1.10651436358543 -4.65221993746112e-17 -0.000233675184389973)
(1.12029810313657 1.13097288244274e-15 -0.000228132420606616)
(1.13727602711188 9.46122557240065e-15 -0.000195082062870724)
(1.1494116169503 6.87319739421962e-15 -0.000186221013594449)
(1.16259486571957 6.58081836585882e-15 -0.000156592702386545)
(1.17235042108966 5.03021380788049e-15 -0.000140135704546886)
(1.18158210260523 4.39015323882521e-15 -0.000107755435820992)
(1.18779543923914 -9.80750939259932e-15 -8.26447386024703e-05)
(1.19252073324652 -4.20468753881253e-15 -4.90431033927351e-05)
(1.19463772912667 1.1985077385347e-14 -2.36145187855045e-05)
(1.19534595180787 3.80752877856901e-15 1.05475993093394e-06)
(1.19443327994699 1.69270038410331e-15 1.58944915329707e-05)
(1.19288652783864 2.39811323489785e-15 2.64485665721271e-05)
(1.19074874169301 1.62767229603718e-15 2.98517025516377e-05)
(1.18863090891104 9.27204067977247e-16 3.05576335287266e-05)
(1.18652181011385 9.49114206688752e-15 2.78565068555269e-05)
(1.184718025399 2.08941162112508e-15 2.44943494929265e-05)
(1.18314275525415 4.64635964565893e-16 2.00889407322214e-05)
(1.18191273110147 9.63448949810864e-16 1.60779066822194e-05)
(1.18093159760842 1.01873983427967e-16 1.2091740633932e-05)
(1.18023157186871 -4.15933582826408e-16 8.82063902311302e-06)
(1.17972562789907 -3.66736957220284e-16 5.92875232898217e-06)
(1.17941225213853 -9.74364106800664e-15 3.72395117157298e-06)
(1.17922389196542 -2.6714094493419e-15 1.9334412934073e-06)
(1.1791493665489 -1.49096068149432e-15 6.77922387256762e-07)
(1.17914116315141 -1.498050085602e-15 -2.48370490955056e-07)
(1.17918872691617 -1.67661112837642e-15 -8.13652813647755e-07)
(1.17926171637659 -1.70806812616853e-15 -1.16230585110479e-06)
(1.17935342513561 -9.91943555390005e-15 -1.29765801456063e-06)
(1.17944629253555 -4.53757393938577e-15 -1.31413037669671e-06)
(1.17953763288422 -3.04497443326087e-15 -1.22654850301226e-06)
(1.17961866896107 4.72871927340335e-15 -1.09084069729807e-06)
(1.17968966427556 -1.0996656020219e-15 -9.22114595989239e-07)
(1.17974731582881 -1.00026411789119e-14 -7.48318290779417e-07)
(1.17979347304077 -3.78433503011102e-15 -5.80766350908316e-07)
(1.17982775492276 -2.74356578784193e-15 -4.28318791377783e-07)
(1.17985259852807 -2.53169505025927e-15 -2.98755898244794e-07)
(1.17986872160679 -2.41147651628517e-15 -1.88891015974693e-07)
(1.17987842591097 -2.2042387041549e-15 -1.05545272600573e-07)
(1.17988282892976 -9.31199625487342e-15 -3.93767041956663e-08)
(1.17988362774688 -4.45203020577964e-15 3.83155686926483e-09)
(1.17988176482051 -2.99594324538312e-15 3.65716300986601e-08)
(1.17987843668602 -3.90905243524039e-15 5.16866010404544e-08)
(1.1798741891233 2.61330371992092e-15 6.27977575616916e-08)
(1.17986972815771 -3.15385059140208e-15 6.12518425147885e-08)
(1.17986536875923 1.84233559094722e-15 6.08563621950668e-08)
(1.17986140560877 -3.92055357940059e-15 5.15025903049554e-08)
(1.17985796577381 1.07433835004347e-15 4.67586656780128e-08)
(1.17985510417054 -2.34895705122168e-15 3.53004643543254e-08)
(1.17985284315306 -4.51598435031751e-15 3.04257501131005e-08)
(1.17985110843613 6.2483081832722e-16 1.99530209971887e-08)
(1.17984987509668 -4.42918646140398e-15 1.68440332669436e-08)
(1.17984900216909 1.72698567379457e-16 8.46858686835635e-09)
(1.17984851967472 -4.85436466407105e-15 7.13913839456085e-09)
(1.1798482373899 -4.49668764572861e-16 9.14270679315028e-10)
(1.17984819024036 -5.10645546850465e-15 1.58023998596897e-09)
(1.17984826713918 -8.18774087556904e-16 -2.96157740992525e-09)
(1.17984841109687 -5.14343654603596e-15 -1.06010836051592e-09)
(1.17984861212047 -1.04246519759548e-15 -4.3047856116173e-09)
(1.17984882295083 -3.66382452992083e-15 -9.95828488198411e-10)
(1.179848983721 -3.11757531087061e-16 -4.22080643462764e-09)
(1.1798491861443 2.91528370643059e-16 -1.12734100923604e-09)
(1.17984938089872 -4.29387331757853e-15 -4.08895606983282e-09)
(1.17984952895464 -9.54254269671237e-16 -2.06318727272288e-10)
(1.17984960850526 -4.57326916974321e-15 -2.77404696017022e-09)
(1.17984971950012 -1.30046680191308e-15 4.67721911913724e-10)
(1.1798497614574 -4.77578265263167e-15 -2.42221887035262e-09)
(1.17984981235011 -1.76492287282723e-15 9.01675768220462e-10)
(1.17984985497521 -1.07458257170758e-15 -1.96054764252133e-09)
(1.1798498731257 -7.48428016559759e-16 1.39940884107151e-09)
(1.17984986585238 -3.16052519731692e-15 -1.59566767874811e-09)
(1.17984987554799 -4.49474353603666e-15 1.67656697170346e-09)
(1.17984985271825 -1.86957054685295e-15 -1.47924804430221e-09)
(1.17984985965391 -4.49950324812169e-15 1.77861074792454e-09)
(1.17984982855498 -2.02500795758008e-15 -1.38789990512361e-09)
(1.17984982980637 -1.39541785581799e-15 1.91404221103384e-09)
(1.1798497756822 -1.32923509488692e-15 -1.19688086961272e-09)
(1.17984978947028 -3.97817869775463e-15 1.81506222595865e-09)
(1.17984974159228 -2.17901062352653e-15 -1.41010144788037e-09)
(1.17984975802826 -4.17409875524184e-15 1.41922539371975e-09)
(1.17984978005604 -2.42342403482006e-15 -1.74872561576796e-09)
(1.17984978294427 -4.08817989572297e-15 1.52636678412241e-09)
(1.17984977555998 -3.61654028114349e-15 -1.50651464979747e-09)
(1.17984978381471 -2.17290445387154e-15 1.61435726156196e-09)
(1.17984976893659 -3.60036865628243e-15 -1.51042003012534e-09)
(1.17984977345443 -2.33190816170761e-15 1.88532105392833e-09)
(1.17984973062197 -3.46067820215836e-15 -1.29966280597964e-09)
(1.17984976044433 -1.82069135437769e-15 1.2910058720781e-09)
(1.17984974842572 -2.61020002297241e-15 -1.67335192548237e-09)
(1.17984979188095 -1.38826205865809e-15 1.37936646587527e-09)
(1.17984976560209 -2.00947986822661e-15 -1.51940435485742e-09)
(1.17984977028097 -2.06926423773932e-15 1.71248429811659e-09)
(1.17984975742292 -2.02830918314032e-15 -1.27697620088989e-09)
(1.17984977472011 -1.5491472571205e-15 1.01428677019908e-09)
(1.17984979361476 -1.80328123756717e-15 -1.8024788860349e-09)
(1.17984975626713 -1.84303547317054e-15 1.83091232879314e-09)
(1.17984979777275 -1.84677004263287e-15 -1.38600525986877e-09)
(1.03971478819656 -1.13828249978948e-15 -0.00105146474551953)
(1.06903978795819 -3.08958184782438e-15 -0.000396944283224711)
(1.08459970686775 -7.46837821289629e-15 -0.000383837133530686)
(1.10623373432536 5.78577877869874e-16 -0.000315392149791701)
(1.11990429325214 1.66368060063401e-15 -0.000310897102447965)
(1.13674514885359 6.70857641093328e-15 -0.0002629807235262)
(1.14870107273027 9.25478124753889e-15 -0.000252579188530805)
(1.16165232337232 8.95737027213126e-15 -0.000210016589086545)
(1.17110560088045 6.67461254696864e-15 -0.000188281738689175)
(1.17997060584021 5.91086263297533e-15 -0.0001426664761142)
(1.18577599719019 -1.52800384168456e-14 -0.000109071919030399)
(1.19011184964848 -5.03594911701308e-15 -6.31453997024552e-05)
(1.19191461326444 8.11467056601163e-15 -2.97842389201708e-05)
(1.19242138479944 4.24884804325042e-15 3.03519603883944e-06)
(1.19141715519309 2.06582746862599e-15 2.20716237776227e-05)
(1.18986537443271 3.35018585237161e-15 3.58995955348818e-05)
(1.18777617998916 2.14655345232249e-15 4.00121070182471e-05)
(1.18573471417255 1.20004462599129e-15 4.0872632514696e-05)
(1.18371044078664 6.41630021612015e-15 3.70962089421381e-05)
(1.18198929296249 2.16206473472609e-15 3.26153100821012e-05)
(1.18048817400659 4.77697877507822e-16 2.66717788717679e-05)
(1.17932161525381 1.3603893864306e-15 2.13449146230673e-05)
(1.17839249829178 6.10129449080119e-17 1.60024964751827e-05)
(1.17773377769022 -6.16539936193454e-16 1.16639851550092e-05)
(1.17725938849799 -5.0111476547378e-16 7.80072342459586e-06)
(1.17696925452362 -6.20657224333884e-15 4.88268098058582e-06)
(1.17679711620074 -2.92564529121554e-15 2.49822691555051e-06)
(1.17673318170143 -1.9202610934221e-15 8.43474154003129e-07)
(1.17673110240622 -2.0461334900057e-15 -3.84466850625909e-07)
(1.17678146158664 -2.30760521045104e-15 -1.12272909672771e-06)
(1.17685481142771 -2.34105099457017e-15 -1.58022595581596e-06)
(1.17694524782423 -6.87101411528241e-15 -1.74955073245763e-06)
(1.17703581383817 -5.62933335081417e-15 -1.76576167394589e-06)
(1.17712433122888 -4.01402073959597e-15 -1.64196122128028e-06)
(1.17720237161582 1.52141475817539e-15 -1.45743073031666e-06)
(1.17727046932321 -2.0399927457251e-15 -1.22882037325278e-06)
(1.17732547510334 -7.59167571114681e-15 -9.95295869115062e-07)
(1.17736934523914 -4.52781166156315e-15 -7.70540978298437e-07)
(1.1774017287222 -3.64519019643613e-15 -5.66776311357994e-07)
(1.17742507054156 -3.43924992820508e-15 -3.93977985178745e-07)
(1.17744005519941 -3.28462468836639e-15 -2.47670689738915e-07)
(1.17744894787581 -2.99715407566543e-15 -1.37227239285079e-07)
(1.17745280643354 -7.17190522184537e-15 -4.92573427891617e-08)
(1.1774532828577 -5.57020702002605e-15 7.49727631297113e-09)
(1.17745126377289 -3.95360825834882e-15 5.08854389518992e-08)
(1.17744790620849 -5.42174784519636e-15 7.02101579896326e-08)
(1.17744371163483 -4.71061407428813e-16 8.48922471788601e-08)
(1.17743935906505 -4.8366796102607e-15 8.21184457805533e-08)
(1.17743513361101 -1.48745587862017e-15 8.16706645404408e-08)
(1.17743131644669 -5.88609848770736e-15 6.86116922860615e-08)
(1.17742801686395 -2.37863876191878e-15 6.25153597564641e-08)
(1.17742528586183 -3.52618975361001e-15 4.67453504559577e-08)
(1.17742313636814 -6.37141744100861e-15 4.05837865204666e-08)
(1.17742149667268 -2.71474114548418e-15 2.6195165196645e-08)
(1.17742033708741 -6.5159147142234e-15 2.24412093349372e-08)
(1.17741952305918 -3.2049580828662e-15 1.08406600232881e-08)
(1.1774190797198 -7.09487116328683e-15 9.57884404204065e-09)
(1.17741882702559 -3.89604369023276e-15 8.71026137076068e-10)
(1.17741879578251 -7.4056530505985e-15 2.16355732763256e-09)
(1.1774188827269 -4.25032751134439e-15 -4.24978458850896e-09)
(1.17741902731209 -7.4257868526973e-15 -1.25711974306808e-09)
(1.17741922843413 -4.38908652710622e-15 -5.99100215500317e-09)
(1.17741943444212 -5.24705680594153e-15 -1.21155992129237e-09)
(1.17741959014692 -3.29673012884787e-15 -5.88773477329397e-09)
(1.17741978402563 -2.62404206253235e-15 -1.28744018178632e-09)
(1.17741997248553 -6.29106585097445e-15 -5.59482175603067e-09)
(1.17742011381616 -3.90864096515153e-15 -7.8451192838902e-11)
(1.1774201900994 -6.58219597813644e-15 -3.94659828180704e-09)
(1.17742029471991 -4.20714738005439e-15 8.49898484787747e-10)
(1.17742033390161 -6.84550361557143e-15 -3.40683310631452e-09)
(1.17742038046234 -4.69824558919057e-15 1.43008111420564e-09)
(1.17742042224272 -3.8730946806573e-15 -2.78545177829525e-09)
(1.17742043800584 -3.38513029498218e-15 2.06997681367337e-09)
(1.17742043116904 -4.54574898891847e-15 -2.32933745424568e-09)
(1.17742043915664 -6.26500849914239e-15 2.44340987448214e-09)
(1.1774204172941 -4.44244947023589e-15 -2.1710029226994e-09)
(1.17742042319426 -6.39047568713757e-15 2.5792196450865e-09)
(1.17742039352543 -4.49661009151195e-15 -2.0540219268453e-09)
(1.17742039396101 -3.72060346851235e-15 2.75593389586544e-09)
(1.1774203420423 -3.58378297611935e-15 -1.84809771709981e-09)
(1.17742035439195 -5.68178710343281e-15 2.64278305484902e-09)
(1.17742030820214 -4.41596815341575e-15 -2.0893493907276e-09)
(1.17742032352382 -5.88801127344961e-15 2.09459960879112e-09)
(1.17742034650284 -4.58220325224068e-15 -2.49284783626083e-09)
(1.17742034881892 -5.74258995191654e-15 2.22074646267257e-09)
(1.17742034288032 -5.21414172456968e-15 -2.2030113157751e-09)
(1.17742035025792 -4.03148618577255e-15 2.33988635741937e-09)
(1.17742033643605 -5.05224437776039e-15 -2.20512940268774e-09)
(1.17742034029948 -4.0706821312222e-15 2.68919529290425e-09)
(1.17742029924745 -4.83415987355618e-15 -1.99266734407599e-09)
(1.177420326506 -2.95579825764332e-15 1.99964421588374e-09)
(1.17742031596383 -3.62718969511721e-15 -2.38898123597872e-09)
(1.1774203588434 -2.43663060624625e-15 2.01799850024648e-09)
(1.17742033286291 -2.80557210529277e-15 -2.18859993137297e-09)
(1.17742033765192 -2.95422990529354e-15 2.44387332706842e-09)
(1.17742032609124 -2.77355663603236e-15 -1.86259951345192e-09)
(1.1774203422589 -2.30179639220589e-15 1.49850134567061e-09)
(1.1774203601583 -2.48550302356095e-15 -2.53577478453129e-09)
(1.17742032390335 -2.55531678432928e-15 2.57712156748828e-09)
(1.17742036618344 -2.52728850335959e-15 -2.01370000696594e-09)
(1.03966469354264 -1.50716322765991e-15 -0.00131849193664038)
(1.06890684053421 -5.0200571752065e-15 -0.00049650234381679)
(1.08435499476463 -2.83771636561764e-15 -0.000480716063422404)
(1.10586854885286 1.62477616731185e-15 -0.000393789244293271)
(1.11939158630675 2.23139176714066e-15 -0.00038857816058004)
(1.13605239442701 1.25321259869555e-14 -0.000327287777380342)
(1.14777066451236 1.17667013988738e-14 -0.00031410046642036)
(1.16041417645749 1.11967547549272e-14 -0.000259287926425663)
(1.16946835976258 8.03666378852254e-15 -0.000231406723930437)
(1.17785657507412 7.29074496096755e-15 -0.000173084247063845)
(1.18314501574952 -1.39449918532566e-14 -0.000130992352763239)
(1.18700329632559 -4.86513618210796e-15 -7.39279645504634e-05)
(1.18843385898417 6.90906531063573e-15 -3.35719401242916e-05)
(1.18871109116232 4.44548167675873e-15 6.01008458007377e-06)
(1.18760951287073 2.26371865860805e-15 2.83905878210458e-05)
(1.18606153077949 4.35820196256158e-15 4.47286138184968e-05)
(1.18403754708225 2.5566815837601e-15 4.92606263792551e-05)
(1.18209252814626 1.39625985879808e-15 5.00879275299366e-05)
(1.18017345880062 4.81594985415428e-15 4.52901233296183e-05)
(1.17855400244994 2.01494301468732e-15 3.97577606401268e-05)
(1.17714374145951 3.88639687575094e-16 3.24355011949769e-05)
(1.17605472979616 1.79725111168355e-15 2.59231203646039e-05)
(1.1751890042486 -6.06050338123071e-17 1.93804031561701e-05)
(1.17458048636854 -8.50453952555551e-16 1.40931924714554e-05)
(1.17414431282418 -6.21356323066062e-16 9.37776068280045e-06)
(1.17388220106699 -4.24875921761907e-15 5.83310983147069e-06)
(1.17372948872405 -3.03586271455099e-15 2.93393144143359e-06)
(1.17367810888845 -2.27422749309269e-15 9.34363799403193e-07)
(1.17368315019837 -2.57859395870126e-15 -5.49239213142467e-07)
(1.17373660301376 -2.92705947073962e-15 -1.43177995811292e-06)
(1.1738101121955 -2.94714074136317e-15 -1.97607042228206e-06)
(1.17389876252998 -5.23714726253966e-15 -2.16824138377075e-06)
(1.17398633002528 -6.66364668374005e-15 -2.1773640164007e-06)
(1.17407125846755 -4.84404206993568e-15 -2.01662968611358e-06)
(1.17414553618621 -4.37212854556947e-16 -1.78472650270469e-06)
(1.17421002690597 -3.1206764584051e-15 -1.5004565958787e-06)
(1.1742617589841 -6.5574908345218e-15 -1.21201362300718e-06)
(1.17430281654601 -5.10698565631646e-15 -9.35579673618423e-07)
(1.17433287592854 -4.4569130563285e-15 -6.85768632079788e-07)
(1.17435439078217 -4.29423659353015e-15 -4.74602328942998e-07)
(1.17436799679874 -4.10929451313315e-15 -2.96197360504196e-07)
(1.1743759155746 -3.7358111070732e-15 -1.62159510252715e-07)
(1.17437912614704 -6.22110984819326e-15 -5.5311777030126e-08)
(1.17437922726218 -6.59519563953706e-15 1.29546735186222e-08)
(1.17437703259396 -4.77087199565574e-15 6.52836633171147e-08)
(1.17437365404023 -6.96274717069985e-15 8.7909400938825e-08)
(1.17436953454 -2.48272702386327e-15 1.05338299942317e-07)
(1.17436532461443 -6.6877467872786e-15 1.01190248860219e-07)
(1.17436126854557 -3.85584359331878e-15 1.00410467495533e-07)
(1.17435763579427 -8.01010661052138e-15 8.39204919913391e-08)
(1.17435450965551 -4.8764893799856e-15 7.64472568416582e-08)
(1.17435194126882 -4.68998906893997e-15 5.68108823753963e-08)
(1.1743499278122 -8.32372993158286e-15 4.94116779747281e-08)
(1.17434840550842 -5.13251752539801e-15 3.15725492474842e-08)
(1.17434733453407 -8.72155529960685e-15 2.71971440658948e-08)
(1.17434659272882 -5.70262257355784e-15 1.27687280797921e-08)
(1.17434619568352 -9.45407208729314e-15 1.15855475249812e-08)
(1.17434597921779 -6.49028197204398e-15 7.14752969182393e-10)
(1.17434596543166 -9.79815623830908e-15 2.55271645684284e-09)
(1.17434606486004 -6.8548645578902e-15 -5.46528910449381e-09)
(1.17434620868784 -9.78222168522328e-15 -1.49285125565685e-09)
(1.17434641037073 -6.94505417385954e-15 -7.51953089381774e-09)
(1.17434660874301 -6.78880640444667e-15 -1.47761183901812e-09)
(1.17434675889095 -5.59898203318483e-15 -7.37834342202854e-09)
(1.17434694146407 -4.9311341512103e-15 -1.44550526860062e-09)
(1.17434712307142 -8.40704331629036e-15 -6.88263138346331e-09)
(1.17434725486639 -6.18853191361591e-15 1.89900448263863e-11)
(1.17434732793771 -8.64993187354703e-15 -4.9875586438735e-09)
(1.17434742398339 -6.46659041583327e-15 1.18120630686775e-09)
(1.17434746076617 -8.97049669390468e-15 -4.24748906173261e-09)