/*--------------------------------*- C++ -*----------------------------------*\
| =========                 |                                                 |
| \\      /  F ield         | OpenFOAM: The Open Source CFD Toolbox           |
|  \\    /   O peration     | Version:  2.3.x                                 |
|   \\  /    A nd           | Web:      www.OpenFOAM.org                      |
|    \\/     M anipulation  |                                                 |
\*---------------------------------------------------------------------------*/
FoamFile
{
    version     2.0;
    format      ascii;
    class       volSymmTensorField;
    location    "20000";
    object      UPrime2Mean;
}
// * * * * * * * * * * * * * * * * * * * * * * * * * * * * * * * * * * * * * //

dimensions      [0 2 -2 0 0 0 0];

internalField   nonuniform List<symmTensor> 
10000
(
(2.88571943096727e-06 -1.65019828836432e-20 -1.60865094098325e-08 4.12045535953066e-34 1.05133098419926e-22 9.18010147945069e-11)
(1.35674783898754e-05 1.25601242438282e-18 -2.59942084789044e-08 6.95201038812176e-31 -3.39279737004705e-21 5.49263541858441e-11)
(3.28769394595252e-05 -3.23520416430177e-18 -4.63713242609368e-08 1.2438659466504e-30 5.77103438526983e-21 7.0541437520741e-11)
(6.68153909215707e-05 -2.09580052505777e-19 -6.85807574253453e-08 1.31860200782247e-33 2.35627674643262e-22 7.59187910640381e-11)
(0.000110123816691843 2.0376125526584e-19 -8.84849583327043e-08 8.23291389345159e-34 -1.90904569433869e-22 7.56112544961757e-11)
(0.000165553135246022 -8.12691783802666e-18 -1.04405778397135e-07 2.47253397106284e-30 5.78858850483599e-21 6.99361421105853e-11)
(0.000227514712630494 2.26289232306346e-18 -1.16009227111964e-07 3.31243733219087e-32 -1.27292327462883e-21 6.23167882500484e-11)
(0.000294224528444742 3.04218198989133e-18 -1.19156183449437e-07 3.86736159876235e-32 -1.3288641957951e-21 5.06827075838929e-11)
(0.000361130810227372 2.99674145519361e-18 -1.15857605849042e-07 2.82343927365012e-32 -1.01167048222771e-21 3.87816925620805e-11)
(0.000422322944890086 2.71445310569311e-18 -1.00841286877777e-07 3.33365182720248e-32 -6.82409468888315e-22 2.51606891156558e-11)
(0.000473786732249293 -3.72935978106455e-18 -7.90341030505773e-08 8.30391825631915e-32 6.90401768723967e-22 1.4156025530139e-11)
(0.000509483133096955 -2.55288195550265e-18 -4.96520216311777e-08 2.43995494641086e-32 2.76114510390121e-22 6.3971501862279e-12)
(0.000529254465863715 5.78205636684025e-18 -2.1446182581181e-08 1.7071947243608e-31 -2.3470947947197e-22 3.529215659946e-12)
(0.000533049403007579 2.84035531053687e-18 3.11167624519978e-09 2.05750737567807e-32 6.41846398454374e-24 3.96821498704607e-12)
(0.000525954832502729 1.44281706699806e-18 1.91376876561282e-08 4.63568389623453e-33 4.29764050180977e-23 5.52897084857006e-12)
(0.000511575827784494 1.39835397302141e-18 2.799326778601e-08 5.99495428727285e-33 9.40683871808118e-23 6.63004542955616e-12)
(0.000494676679221318 1.08208881203551e-18 3.04191751213116e-08 3.14954852666801e-33 7.6599427670909e-23 6.55263430745281e-12)
(0.000477413066451104 7.34605231173542e-19 2.92566793619515e-08 1.42668188253289e-33 4.78485520561128e-23 5.68906582276603e-12)
(0.000461812973895581 4.21368034807881e-18 2.59035825298357e-08 1.31846472310021e-31 2.41906844579562e-22 4.39305955552643e-12)
(0.000448275781454122 1.43916151837751e-18 2.18688816715462e-08 8.43694850419482e-33 3.28079735294279e-23 3.12992574928028e-12)
(0.000437219417235291 4.9666745729513e-19 1.77107694676522e-08 1.52806370401006e-33 -1.4694592092286e-24 2.04535168959272e-12)
(0.00042835686859477 5.20638710032254e-19 1.39068813615838e-08 2.84610641564735e-33 1.42230700376579e-23 1.26400669664494e-12)
(0.000421584697728239 1.96109841429966e-19 1.05550263014904e-08 1.14022567849395e-33 -1.9959180917421e-24 7.20929667650211e-13)
(0.000416505944384582 -6.85819867885821e-20 7.74068621597216e-09 6.69241874659635e-34 -7.89477440680647e-24 3.96687278420737e-13)
(0.000412883001866815 -1.44373183098905e-19 5.45545632343443e-09 5.05027837199718e-34 -5.24937263250094e-24 2.09406089976189e-13)
(0.000410392955504157 -1.3588893013547e-17 3.61161056657148e-09 6.65571342885534e-30 -1.0284080803022e-22 1.18075694421109e-13)
(0.000408823016824211 -1.61086092208323e-18 2.20205689577832e-09 1.3520169154762e-32 -3.63214889977143e-24 7.69960656932435e-14)
(0.00040793573650566 -7.78632291876784e-19 1.12273476029973e-09 2.79214107989655e-33 -1.48959021824134e-25 6.31045742751759e-14)
(0.000407555097122536 -6.85128824306365e-19 3.765816722949e-10 2.22039953564822e-33 7.33800870672251e-25 5.91684369451852e-14)
(0.000407526235570055 -7.63938511335623e-19 -1.67646579530484e-10 2.44015219613833e-33 1.72405349679563e-24 5.61742816156604e-14)
(0.000407732778393788 -8.1329833883017e-19 -4.82892188758087e-10 2.44111378542366e-33 2.75128517200058e-24 5.35077150317584e-14)
(0.000408079571302844 -1.28603417312932e-17 -6.81009418793402e-10 7.34734063219372e-30 2.10233350439136e-23 4.80639695165423e-14)
(0.000408485640745138 -2.35627551668534e-18 -7.29155326802926e-10 1.86481252672668e-32 4.73549922415019e-24 4.23260952119991e-14)
(0.000408907986889862 -1.53163883994242e-18 -7.36897863325162e-10 6.49987993692012e-33 3.95188912904759e-24 3.56891700915754e-14)
(0.000409300558675829 1.42319354697358e-18 -6.54789385958772e-10 4.58111335695248e-32 -1.03768168590855e-24 3.20519819703181e-14)
(0.000409652985888354 -4.65418834632446e-19 -5.90619970248821e-10 3.90275238524482e-33 3.27858850711209e-24 2.47282701069029e-14)
(0.000409944845350285 -1.23565703063666e-17 -4.69122227439115e-10 2.48336242396583e-30 6.46339651036975e-24 2.54594363735879e-14)
(0.000410188663728217 -2.30630720642789e-18 -3.78063190763277e-10 1.55480373102178e-32 2.64176390134185e-24 1.96758884685054e-14)
(0.000410360115979724 -1.54470605012687e-18 -2.55312527622135e-10 6.52795372061602e-33 1.86348958117953e-24 1.57894400647758e-14)
(0.000410481262926199 -1.41751193482167e-18 -1.80137227065088e-10 5.84168781134969e-33 1.39915726203909e-24 1.71473713030135e-14)
(0.000410556350041169 -1.38052889819417e-18 -1.01625031526844e-10 5.77417717145096e-33 9.46502462267602e-25 1.66438103518761e-14)
(0.000410606904433841 -1.32061980992798e-18 -7.29613597244314e-11 5.45188213381597e-33 5.2114755084858e-25 1.45420506734949e-14)
(0.000410619534726209 -1.18804066631156e-17 -7.91433019600653e-12 1.76767736825007e-30 -5.73126419932716e-24 1.79877877431515e-14)
(0.00041062461039898 -2.4758801691402e-18 8.25570309962629e-12 1.77183735261133e-32 -1.48238528863652e-25 1.70572932355987e-14)
(0.000410606316453066 -1.65526101261309e-18 4.35902974730877e-11 7.82055215024443e-33 -1.26372425070663e-25 1.36916982184881e-14)
(0.000410587343029567 -1.8556806801738e-18 4.075903290133e-11 1.05326779676481e-32 -3.85494294515981e-25 1.66248466821861e-14)
(0.000410552756110238 4.011155733419e-19 6.26977760195261e-11 1.80693977774513e-32 -8.36637298237708e-25 1.51508864081039e-14)
(0.000410527952693363 -1.4600437656026e-18 4.01702760392664e-11 1.04227231212144e-32 -5.16114403731003e-25 1.48981249635093e-14)
(0.000410496740485877 1.29972093911681e-19 5.16615490659277e-11 1.31365538929481e-32 -7.6221367226721e-25 1.47659187612822e-14)
(0.000410480145328629 -1.85691746975996e-18 2.84961409844994e-11 1.64287172983771e-32 -6.09466409527091e-25 1.51443041913189e-14)
(0.000410454388444226 -3.30023411849047e-19 4.53747346397582e-11 9.70254999543027e-33 -7.94546957047391e-25 1.5289700704222e-14)
(0.000410439597405832 -1.51984529528178e-18 1.7512923238664e-11 1.19031031443361e-32 -2.35493520231927e-25 1.47851448246089e-14)
(0.000410424285825162 -2.36802406283762e-18 2.63553812776094e-11 2.2011950049286e-32 -1.86236694551914e-25 1.49229827420738e-14)
(0.000410420391655508 -5.68367097802941e-19 2.87171977641331e-12 1.53863295677945e-32 3.60533432618184e-25 1.51427724568409e-14)
(0.00041041051281665 -2.31633187396302e-18 1.8071114001879e-11 2.42850259054316e-32 -5.42675671318181e-26 1.68773415288588e-14)
(0.000410410682537998 -8.60127447981284e-19 -1.10856102716419e-11 2.49577824044556e-32 6.665858942755e-25 1.44229970269913e-14)
(0.000410405553905147 -2.53471325127031e-18 1.06684197675307e-11 2.96009146124294e-32 -3.88929099222468e-27 1.63601228175849e-14)
(0.000410412627505297 -1.12108773130825e-18 -8.59324119452835e-12 3.22724135947321e-32 3.44871600167772e-25 1.63675763645609e-14)
(0.000410405855187923 -2.71211398644293e-18 1.29619447960292e-11 3.39965325066965e-32 9.67402723402937e-26 1.59573869038236e-14)
(0.000410404270271059 -1.34540848505579e-18 -7.97111626735498e-12 3.91066865587685e-32 3.83121663857339e-25 1.52768594983134e-14)
(0.000410404081431448 -2.82686493684543e-18 1.10910658692425e-11 3.74072569404517e-32 1.00230996615159e-25 1.3192300996199e-14)
(0.000410408779596638 -1.52315969649286e-18 -1.25929889665132e-11 4.67184528816112e-32 6.08978787776996e-25 1.51664001955366e-14)
(0.000410406893763593 -2.38425997649872e-18 -3.3145239462522e-12 3.08976712739895e-32 5.5962716702293e-26 1.75633568727882e-14)
(0.00041041503485717 -1.17517689025783e-18 -1.72253872457645e-11 3.05941247347417e-32 1.97111981466161e-25 1.19186548255509e-14)
(0.000410415160059241 -8.44103590343963e-19 3.5085983536619e-12 3.18854044825477e-32 -6.4644325131033e-26 1.24994923719398e-14)
(0.000410416496219534 -2.49005972687146e-18 3.74682259255032e-12 3.86462822762535e-32 -1.51290445624001e-25 1.69828076795699e-14)
(0.000410409913814025 -1.45122367422959e-18 1.02135103578702e-11 3.65575624874458e-32 -2.62970807190444e-25 1.54604991127749e-14)
(0.000410416318256557 -2.67694780403136e-18 -1.6654645216761e-11 4.21984283969207e-32 -2.6541068503937e-26 1.38362685709217e-14)
(0.000410410547546425 -1.60093296408218e-18 6.17637715663071e-12 3.82804623210314e-32 -1.97565151792072e-25 1.72210623381259e-14)
(0.000410417769794558 -2.75365651214916e-18 -6.48740874229678e-12 4.59168294350411e-32 -1.16129760420637e-25 1.65685867104894e-14)
(0.000410414474086185 -1.80832399918324e-18 9.25612173786369e-12 3.9931619621272e-32 -7.05670527063972e-26 1.33737670456653e-14)
(0.000410418667759371 -1.43001829591184e-18 -3.87851636474156e-12 3.77186903044575e-32 3.06276450134074e-25 1.62891583439806e-14)
(0.000410411245129305 -1.28687981556226e-18 1.3230165269167e-11 3.65678000590682e-32 -2.11858825603943e-25 1.48602023078576e-14)
(0.000410414664334002 -2.16841294634665e-18 -8.87538150202229e-12 4.0085432201964e-32 -1.29199344056689e-26 1.45391540530826e-14)
(0.000410410262422944 -2.68167671146388e-18 5.91030016064688e-12 4.72580498252489e-32 1.51247851524117e-25 1.45376946822581e-14)
(0.000410418124054956 -1.77841330194169e-18 -1.24589651514558e-11 3.67674417790637e-32 -1.01962165168649e-25 1.47945854302691e-14)
(0.000410414521215596 -2.64460350827205e-18 6.55796832916271e-12 4.83012168886883e-32 1.495702331339e-25 1.46660147078357e-14)
(0.00041042108626832 -1.85108588862866e-18 -1.16558642253303e-11 4.12566322658175e-32 1.43706243990126e-25 1.49214580875332e-14)
(0.00041041731102176 -1.51491117447776e-18 8.27808874912726e-12 4.04974198209214e-32 -1.10972460065715e-26 1.65793531586189e-14)
(0.000410422807400668 -1.43466757582901e-18 -1.84638308879962e-11 4.2471302351153e-32 1.61351075001439e-25 1.46040702163382e-14)
(0.000410420646875798 -2.37806755424425e-18 2.46300946332654e-13 4.71996681196498e-32 1.39704356989021e-25 1.86880665293002e-14)
(0.000410432947582029 -1.78120534655693e-18 -1.38152122938224e-11 4.66253151815697e-32 -2.08948117340524e-26 1.61344075071308e-14)
(0.000410427806507352 -2.46567124569007e-18 1.20267968250101e-11 4.78102256183588e-32 7.37258509157978e-26 1.34399291270211e-14)
(0.000410426627375893 -1.89978156507206e-18 1.73485916427481e-13 4.27053938403954e-32 -6.36212425014335e-26 1.61747444871894e-14)
(0.000410422722173731 -2.44527902155051e-18 7.13622544690692e-12 4.70198719772262e-32 9.10020929553965e-26 1.43528011334476e-14)
(0.000410429716714678 -3.45850195952263e-19 -1.305602825949e-11 1.25963332582687e-31 -1.35408442671565e-24 1.47979577667322e-14)
(0.00041042707080674 -1.71470024536594e-18 7.55953016662374e-12 3.92301633321022e-32 -3.05274057697369e-26 1.48459467955897e-14)
(0.000410430761238478 -2.19867506536182e-18 -1.28062061794006e-11 4.29725156569758e-32 -7.45142464950027e-26 1.46474334235091e-14)
(0.000410432609680322 -1.76986281246904e-18 -6.24546986507256e-12 3.78699688053177e-32 -4.675493380125e-26 1.74219924779021e-14)
(0.000410445696626072 -2.11689556699909e-18 -2.7310681896177e-11 4.11950197084737e-32 -1.78384680428474e-26 1.41304913168067e-14)
(0.000410446100513662 -2.84546699285263e-18 8.78367661423115e-12 1.40209932816462e-31 -7.24172734216889e-25 1.17344931737117e-14)
(0.000410454811379468 -1.78354411693042e-18 -1.10768454157012e-11 3.64677160033331e-32 -3.92112277557233e-26 1.72869960152944e-14)
(0.0004104524526376 -1.29952820004934e-18 -1.89046450909683e-12 3.25027228043709e-32 -5.17510506775962e-26 1.5893548391022e-14)
(0.000410466847537538 -1.46472990588413e-18 -2.29590850800039e-11 3.27798325380112e-32 -1.93501328268878e-26 1.91284034681382e-14)
(0.000410457538440268 -7.21628345720439e-19 2.50678085746693e-11 4.11875731741499e-32 5.02689736685605e-25 1.82876028505104e-14)
(0.000410460754006747 -1.39992527823282e-18 -9.60879565356092e-12 3.08791884780726e-32 -3.37745814854103e-26 1.60731214463241e-14)
(0.000410456876085652 -1.66183547458698e-18 5.35309028708478e-12 3.57567225384284e-32 -2.71800775322487e-25 1.49327107660696e-14)
(0.000410463710581066 -1.27557483898146e-18 -1.34324042900699e-11 2.8335132740569e-32 -7.381228385173e-26 1.67654347352239e-14)
(0.000410459094841054 -1.04808059585759e-18 9.669713289018e-12 2.66339050626288e-32 1.59691101080756e-25 1.7137062250405e-14)
(0.000410468378263307 -1.22357295095115e-18 -4.72944840133341e-11 2.63972856199055e-32 -4.91172026868818e-26 1.60806081613709e-14)
(2.78122310559681e-06 -4.53146099150135e-20 -3.92969934805533e-08 3.23610761416929e-33 7.30250091552824e-22 5.67841327406783e-10)
(1.32638498600013e-05 4.2285109951038e-19 -6.41292262805058e-08 9.94375922159095e-32 -2.8812783055198e-21 3.41337543962257e-10)
(3.24452567539435e-05 -2.74622669575452e-18 -1.15996804918902e-07 5.97907073248355e-31 1.21290705366889e-20 4.45249609923608e-10)
(6.61233360448321e-05 -3.92861701402599e-19 -1.70264162520465e-07 6.00678092277196e-33 1.06918822664172e-21 4.7274368414398e-10)
(0.000109181441628525 5.83359791697223e-19 -2.21458751012313e-07 6.64359831109409e-33 -1.37504095777456e-21 4.76464239881255e-10)
(0.000164167673161408 2.2535051565421e-18 -2.59403323610768e-07 7.7345109448472e-31 -4.27723871364245e-21 4.35461052197864e-10)
(0.000225595924101318 6.84969193536586e-18 -2.89801660390086e-07 2.91300035581074e-31 -9.68268562612246e-21 3.91590662659667e-10)
(0.000291519847446464 8.43804079284559e-18 -2.95595383623692e-07 3.00589045344415e-31 -9.23123598010146e-21 3.14903144658827e-10)
(0.00035743504555219 8.26244955819708e-18 -2.88386406905463e-07 2.17014363188668e-31 -7.01256663590506e-21 2.42543657880403e-10)
(0.000417356755721521 7.48185820413245e-18 -2.49125576872174e-07 2.62774768363348e-31 -4.70357157008325e-21 1.55480602790154e-10)
(0.00046740267144707 -1.07148318041979e-17 -1.956142362287e-07 6.94555089447731e-31 4.96471428865272e-21 8.78788657930293e-11)
(0.000501708169076576 -6.92874825277774e-18 -1.21746758640277e-07 1.83790529791452e-31 1.8673953728273e-21 3.93705495167137e-11)
(0.000520391077961202 1.64266505214899e-17 -5.26664017156792e-08 1.57429111050483e-30 -1.67092708562195e-21 2.19892743248897e-11)
(0.000523551633758501 7.65594246507807e-18 8.16573463447743e-09 1.51916088173155e-31 5.97772359746935e-23 2.48754292834927e-11)
(0.000516281271573327 3.9138337535266e-18 4.72000103202767e-08 3.47374050554207e-32 2.9968173637804e-22 3.44637179220448e-11)
(0.000502057534258249 3.85922297441678e-18 6.9047430775872e-08 4.72160454173832e-32 6.57623683372586e-22 4.13668927985823e-11)
(0.00048550121958546 2.96843502397054e-18 7.4849884220081e-08 2.41915114269757e-32 5.30361283900614e-22 4.07088817511825e-11)
(0.000468645256298084 2.01224254791551e-18 7.20333634503e-08 1.09202536080483e-32 3.3085820940518e-22 3.53887029439261e-11)
(0.000453448371466658 1.17630870023233e-17 6.37421895727929e-08 1.22285261312067e-30 1.67471500368758e-21 2.72668038776677e-11)
(0.000440270407160881 3.85882003326907e-18 5.38461398228815e-08 6.14508732277583e-32 2.24424843701326e-22 1.94628011355673e-11)
(0.000429518374376547 1.33973175628954e-18 4.3598722944618e-08 1.13004295504625e-32 -7.66659716199655e-24 1.26825066441718e-11)
(0.000420901891129422 1.44146189319292e-18 3.42483751631388e-08 2.26999150551806e-32 1.00450175314592e-22 7.87912298133101e-12)
(0.000414324798624577 5.31056224701009e-19 2.59886360277277e-08 8.74867897135013e-33 -1.3944159448127e-23 4.4783959130757e-12)
(0.000409395253540445 -1.95656343935857e-19 1.90588056180129e-08 5.15380352119956e-33 -5.48656096239288e-23 2.48433918040064e-12)
(0.000405884438798187 -4.00514343660058e-19 1.34281028812245e-08 3.91828039003172e-33 -3.61259527610496e-23 1.31456521166881e-12)
(0.000403474995130937 -1.42344448734354e-17 8.88474739005981e-09 2.5748967655711e-30 -3.51345717803477e-22 7.54564745269088e-13)
(0.000401961328746259 -3.96760027664404e-18 5.41213328596177e-09 7.61568261334665e-32 -2.87518348135259e-23 4.98255135209924e-13)
(0.000401110266994964 -2.11844664833572e-18 2.75173215345858e-09 2.1150398293857e-32 -1.31672064469759e-24 4.15010144022858e-13)
(0.000400751373009323 -1.88721974349579e-18 9.15934369667762e-10 1.7247363362434e-32 5.26161082607847e-24 3.91704210792188e-13)
(0.000400732706509643 -2.10914877371859e-18 -4.25603470471582e-10 1.89688724708885e-32 1.18713673418956e-23 3.70443729434897e-13)
(0.000400941903891061 -2.24552555568171e-18 -1.19933367953451e-09 1.89449623616651e-32 1.93431391759967e-23 3.56001604745172e-13)
(0.000401285570449827 -1.47491252590247e-17 -1.68704303944127e-09 2.08592602582916e-30 5.82262405940467e-23 3.2064083420626e-13)
(0.000401685642920535 -6.07576759362346e-18 -1.80252050211283e-09 1.16865683081173e-31 3.46496972536456e-23 2.85579445313765e-13)
(0.000402099893574093 -4.19350334032376e-18 -1.82131173414594e-09 4.96142184312654e-32 2.75222138068661e-23 2.43210788616216e-13)
(0.00040248426845535 4.04148843246168e-18 -1.61615333934761e-09 4.37064154769418e-31 -4.90253099184495e-24 2.27011213605372e-13)
(0.000402828445690506 -1.36201922605726e-18 -1.45889661212136e-09 2.98935042162858e-32 2.25755218542323e-23 1.71723981487372e-13)
(0.000403113278193645 -1.48079769805642e-17 -1.15808241817294e-09 1.27779238381664e-30 6.02480313920663e-23 1.88944257550509e-13)
(0.000403350796966073 -5.95560572161703e-18 -9.30901719530542e-10 1.0174056503631e-31 1.88005506718926e-23 1.40155859446139e-13)
(0.000403517355386018 -4.23473807340485e-18 -6.29392853863359e-10 5.00791177570495e-32 1.30871238915741e-23 1.12225911537747e-13)
(0.000403634167031042 -3.90658543329361e-18 -4.4176910801611e-10 4.52699290764866e-32 9.60544515444172e-24 1.35179334963634e-13)
(0.000403706584556351 -3.80738570934376e-18 -2.48941560546938e-10 4.47757466101722e-32 6.66569108988961e-24 1.28932579350041e-13)
(0.000403755121346716 -3.64350327971146e-18 -1.80398038481137e-10 4.22824326292978e-32 3.52934632750169e-24 1.08280327834389e-13)
(0.000403766942458583 -1.44199034260584e-17 -1.96643327179579e-11 1.01099319308138e-30 6.88932674630831e-24 1.39066808428455e-13)
(0.000403771487352822 -6.45802357633175e-18 2.27805148254956e-11 1.2134751627103e-31 -1.3787918014558e-24 1.26118545413982e-13)
(0.000403753249146543 -4.53660806044829e-18 1.08278679436649e-10 5.98849656920508e-32 -7.99761684630101e-25 1.00143321392499e-13)
(0.00040373400729421 -5.12795412246888e-18 1.01807918733371e-10 8.20942861145385e-32 -3.12258297984227e-24 1.32970065678118e-13)
(0.000403699961814441 1.19835657381813e-18 1.55960097992711e-10 1.72384765924288e-31 -4.8313747799036e-24 1.15832765995587e-13)
(0.000403675527374636 -4.1016710528894e-18 9.88800791465811e-11 8.18278744547466e-32 -4.14480963913123e-24 1.13426513915224e-13)
(0.000403645025791599 4.27632752481955e-19 1.2798941428345e-10 1.22058173152019e-31 -4.81237383883813e-24 1.12543313501517e-13)
(0.000403628776784792 -5.19738381817932e-18 6.97380194934003e-11 1.28473935989068e-31 -4.91375611430967e-24 1.16322718395803e-13)
(0.000403603684785647 -8.41389467153524e-19 1.12745790222961e-10 8.36902746764421e-32 -3.45463033880549e-24 1.17267286740183e-13)
(0.000403589188261444 -4.23767735914817e-18 4.26914931303891e-11 9.26209509345315e-32 -1.83904093563021e-24 1.12767594487308e-13)
(0.000403574385656968 -6.56175750176777e-18 6.53389921119095e-11 1.71357520989471e-31 -7.52990205244178e-25 1.1381203674594e-13)
(0.000403570582014678 -1.49214826844145e-18 6.41302129717057e-12 1.36451181707953e-31 1.72914182818049e-24 1.1620366704038e-13)
(0.00040356111177009 -6.45524961934639e-18 4.47396542882816e-11 1.89663885655762e-31 2.36357798970409e-25 1.32618727073885e-13)
(0.000403561354277882 -2.30787903865943e-18 -2.88802692062501e-11 2.22269227772798e-31 3.22069892241215e-24 1.07665815742134e-13)
(0.000403556656629611 -7.05668357938454e-18 2.62354773859403e-11 2.30834820456682e-31 6.08536209128911e-25 1.24776920524255e-13)
(0.000403563505269711 -3.03029993639682e-18 -2.05115708576547e-11 2.88276665426914e-31 1.06720556662335e-24 1.25392366813407e-13)
(0.000403556939454486 -7.54180980452322e-18 3.13928369911792e-11 2.64882673243094e-31 1.32894251525018e-24 1.20462019598623e-13)
(0.000403555187373117 -3.65144919740493e-18 -1.95491694785365e-11 3.49793852674698e-31 1.41776101738183e-24 1.16793172107205e-13)
(0.000403555187560745 -7.85380719011732e-18 2.84557069159975e-11 2.91265736151331e-31 1.27713036644331e-24 9.95856503134388e-14)
(0.000403559516326979 -4.14455796036372e-18 -3.09052562331608e-11 4.17536237348271e-31 2.66938903318037e-24 1.18317371691676e-13)
(0.000403557731609494 -6.61118497124652e-18 -1.08395648789768e-11 2.39949560893878e-31 7.14489330646405e-25 1.45184095854159e-13)
(0.00040356641537187 -3.19253056155472e-18 -4.2386062157774e-11 2.60218081798501e-31 -8.77491091395713e-25 8.19249592864366e-14)
(0.00040356678326714 -2.31517297452033e-18 6.5023777384946e-12 2.70163050038316e-31 1.54553118071546e-24 8.79401434596806e-14)
(0.000403567262661442 -6.93132381244056e-18 1.27987634217774e-11 3.00820426304153e-31 -1.7247675419631e-24 1.41906209680542e-13)
(0.00040356076798842 -3.95680444214089e-18 2.51680469481974e-11 3.044279415456e-31 -3.91480190143181e-25 1.20612297526258e-13)
(0.000403566996468152 -7.43073633267841e-18 -4.20167730464327e-11 3.28231559875383e-31 -7.91138896734692e-25 1.03737138108064e-13)
(0.00040356153219534 -4.36908556072438e-18 1.36045506705642e-11 3.14576464170945e-31 1.88423336021906e-25 1.33552552848034e-13)
(0.000403568748519767 -7.63950652429813e-18 -1.39062583309949e-11 3.57166807293713e-31 -1.46161279484128e-24 1.22869947532362e-13)
(0.000403565590125332 -4.94594787445349e-18 2.24233246075823e-11 3.23668538377692e-31 1.01134200737257e-24 9.80680000256188e-14)
(0.000403569286338445 -3.928138650661e-18 -8.35732249645488e-12 3.0491735382992e-31 1.24925979307371e-24 1.30646332621751e-13)
(0.000403561993424173 -3.54172952263062e-18 3.30468572791041e-11 2.93659884363524e-31 -2.24135856894906e-25 1.14048859171239e-13)
(0.000403565261138938 -6.01458852265348e-18 -2.19541750275759e-11 3.11196588842388e-31 -4.78623204973999e-25 1.10832407949203e-13)
(0.000403561027006338 -7.4145102249593e-18 1.43867659416071e-11 3.66896374290809e-31 1.63987464457707e-24 1.11239936618538e-13)
(0.000403568692055156 -4.86615391681343e-18 -3.07848773855863e-11 2.86109913610661e-31 -1.79783215057568e-24 1.13841191449e-13)
(0.000403565246315019 -7.32682860107849e-18 1.62708215264085e-11 3.75421107580407e-31 1.69026376352515e-24 1.11864743199096e-13)
(0.00040357160882265 -5.07030454873276e-18 -2.91747672533184e-11 3.25909452231481e-31 -1.49886104398418e-25 1.14538679073534e-13)
(0.000403568031062118 -4.16446933015497e-18 2.0660448727536e-11 3.22900069157999e-31 1.16431144585067e-24 1.2960708719008e-13)
(0.000403573404471169 -3.95230901417095e-18 -4.70437581061108e-11 3.41061435861621e-31 2.27899863561425e-25 1.09524559548023e-13)
(0.000403571546175208 -6.59386410318276e-18 -5.2134129132043e-13 3.66528950152884e-31 1.55223892870198e-24 1.4621451845112e-13)
(0.000403583794872819 -4.88513813955089e-18 -3.32808834100497e-11 3.76113485682244e-31 -1.30765456078847e-24 1.19235695243881e-13)
(0.000403578820967754 -6.82534556769291e-18 2.92135609557742e-11 3.71168226394734e-31 1.04369700744658e-24 9.74555600895311e-14)
(0.000403577176841141 -5.21365882614546e-18 1.74350439891105e-12 3.36005837322422e-31 -1.46825116190358e-24 1.30204154181899e-13)
(0.000403573345822528 -6.76244075546812e-18 1.8306321306712e-11 3.64986688979385e-31 1.13458146457111e-24 1.09267569551121e-13)
(0.000403580150440952 -5.59614430713502e-18 -3.28571751139024e-11 3.36007340574876e-31 -9.0698355881999e-25 1.13250252268395e-13)
(0.000403577634444652 -4.78332554658204e-18 1.89222377221057e-11 3.06105897127753e-31 5.15372985468203e-25 1.1333684609482e-13)
(0.000403581202315539 -6.08304810152669e-18 -3.19155257685142e-11 3.3357344166792e-31 -9.8334761455759e-25 1.1158503196201e-13)
(0.000403583169549693 -4.86267763142714e-18 -1.66099093490227e-11 2.94677858298749e-31 3.39209060487485e-25 1.39627438867131e-13)
(0.000403596317002153 -5.85399269114529e-18 -6.89287181861226e-11 3.19849626177382e-31 -5.26537922154496e-25 1.03166248533235e-13)
(0.000403597050804283 -4.79539334187062e-18 2.27491918903614e-11 3.12605862438053e-31 4.07894837304123e-25 8.51454881225594e-14)
(0.00040360504385184 -4.87554511874467e-18 -2.66200759252425e-11 2.82630964711025e-31 -6.1671697530284e-25 1.41159383294104e-13)
(0.000403602775687073 -3.56444728815001e-18 -4.12811488783735e-12 2.53069978707025e-31 1.19677099110666e-25 1.20348946125705e-13)
(0.000403616917811211 -4.04428749166626e-18 -5.86271035666245e-11 2.54256194618026e-31 -3.58533817748978e-25 1.41389921974949e-13)
(0.000403607862415667 -3.72197507112452e-18 6.38182619101555e-11 2.45556390132715e-31 8.39087147564445e-25 1.34570688079772e-13)
(0.00040361083900442 -3.89184821259404e-18 -2.51550715393673e-11 2.39507072051545e-31 -4.15647112621761e-25 1.22835364716359e-13)
(0.000403607110603721 -3.51907835934846e-18 1.40498762023332e-11 2.26686163812315e-31 3.40111835290728e-26 1.14730976367797e-13)
(0.000403613824754512 -3.49794843027224e-18 -3.4275254225174e-11 2.19678506519288e-31 -7.36837029580077e-25 1.23314842268e-13)
(0.000403609350082101 -3.36569754802218e-18 2.55468928696374e-11 2.11303902081925e-31 9.13663088901996e-25 1.24771224988079e-13)
(0.000403618301087372 -3.38288558882485e-18 -1.2113740531016e-10 2.04733957232305e-31 -5.10364485245445e-25 1.23863178253796e-13)
(2.74528401256191e-06 -7.44646721407342e-20 -6.08449016584797e-08 8.97378834015465e-33 1.8830259423319e-21 1.3787780885053e-09)
(1.31949124608788e-05 -2.10278713834678e-19 -9.96420053829246e-08 2.25647510521963e-32 2.01835420018107e-21 8.28771875792035e-10)
(3.24069306205654e-05 -2.79361982316138e-18 -1.82446464826961e-07 5.80030651034558e-31 1.91292237103195e-20 1.09887738754842e-09)
(6.60419930667011e-05 -2.82190709799141e-19 -2.6507042328813e-07 9.86683028829779e-33 1.03479544811865e-21 1.14791711817149e-09)
(0.00010895771388153 1.03107555490975e-18 -3.46998325003042e-07 1.95464796584745e-32 -3.7930864937434e-21 1.1696359503941e-09)
(0.000163545584826563 1.12005468193599e-17 -4.02500887575463e-07 2.43971664660445e-30 -3.19143254304196e-20 1.05308339823098e-09)
(0.000224280537099109 1.15481084558997e-17 -4.51316340710869e-07 8.11233435192549e-31 -2.55266960454422e-20 9.54030555585235e-10)
(0.000289058377618501 1.3607692850486e-17 -4.55622442366483e-07 7.90450686550554e-31 -2.31500888673513e-20 7.54956593007325e-10)
(0.000353300478979524 1.30913303074461e-17 -4.44584203273022e-07 5.51679272026378e-31 -1.73197727499182e-20 5.82732832921133e-10)
(0.000410980679860229 1.1858823871299e-17 -3.7904953501951e-07 7.32858736990164e-31 -1.15302706555148e-20 3.65992428909761e-10)
(0.000458394709697441 -1.96134574590472e-17 -2.96442024120714e-07 2.36908861263771e-30 1.39557247915809e-20 2.06277292101285e-10)
(0.000490107543830609 -1.0335621298021e-17 -1.80894922656937e-07 4.30309730101462e-31 4.25833174631587e-21 9.12048853449364e-11)
(0.000506734563215705 2.89899921553807e-17 -7.68217822367223e-08 4.76822845162978e-30 -4.51460466230766e-21 5.25041993053358e-11)
(0.000508704742567367 1.11297190584471e-17 1.52810073039916e-08 3.24731350910732e-31 2.67018155887522e-22 6.06681815069751e-11)
(0.000501086514515192 5.87347535423444e-18 7.29007714876175e-08 8.07196084684702e-32 7.63959141531822e-22 8.31804001294251e-11)
(0.000487135172439812 6.18913469208823e-18 1.05417044805414e-07 1.31308455288288e-31 1.68133583313491e-21 9.9407186348449e-11)
(0.00047118667723467 4.64761248386013e-18 1.13551559345103e-07 6.13324082557706e-32 1.31622174429423e-21 9.69890921706479e-11)
(0.000455060961712883 3.1293843848885e-18 1.09170501661077e-07 2.73875232734587e-32 8.17258751164964e-22 8.4217735368318e-11)
(0.000440582610899964 1.96036776710443e-17 9.64682012061721e-08 3.50148202013617e-30 4.14369459210461e-21 6.46355353593593e-11)
(0.000428046546852912 5.48062485281091e-18 8.1509860831277e-08 1.23574404886695e-31 5.41922873486489e-22 4.6163594802515e-11)
(0.000417836477304867 1.94895541669857e-18 6.59654017389177e-08 2.49917841546248e-32 1.37143066113917e-24 2.99499507244817e-11)
(0.000409660267306267 2.32749797146552e-18 5.18171976524903e-08 6.56814743008525e-32 2.65868997520654e-22 1.87118087748369e-11)
(0.000403431779981922 7.76762785433789e-19 3.92969343579568e-08 2.20199094848787e-32 -3.65049610057298e-23 1.05812351596153e-11)
(0.000398770637903612 -3.62628969862821e-19 2.87957629908059e-08 1.31985467938848e-32 -1.36177038514128e-22 5.92407836934966e-12)
(0.000395462483903986 -6.44580336875171e-19 2.02606438129679e-08 1.02983788609233e-32 -8.69616251788998e-23 3.15151031314508e-12)