/*--------------------------------*- C++ -*----------------------------------*\
| =========                 |                                                 |
| \\      /  F ield         | OpenFOAM: The Open Source CFD Toolbox           |
|  \\    /   O peration     | Version:  2.3.0                                 |
|   \\  /    A nd           | Web:      www.OpenFOAM.org                      |
|    \\/     M anipulation  |                                                 |
\*---------------------------------------------------------------------------*/
FoamFile
{
    version     2.0;
    format      ascii;
    class       surfaceScalarField;
    location    "0";
    object      phi;
}
// * * * * * * * * * * * * * * * * * * * * * * * * * * * * * * * * * * * * * //

dimensions      [0 3 -1 0 0 0 0];

internalField   nonuniform List<scalar> 
19800
(
1.14331552679393e-08
2.1940670866936e-08
3.26719396416059e-08
-1.33141726983699e-08
8.10649777093353e-09
1.59269407140899e-08
2.6316502574566e-08
-1.45910969107557e-08
5.38613266502131e-09
1.71599655355052e-08
1.78989718765743e-08
-1.1353019843674e-08
4.60503202858097e-09
1.14792200189839e-08
1.92181866098524e-08
-1.02543079300496e-08
4.12082938422362e-09
1.07396467381441e-08
1.38435274084154e-08
-8.62630993063557e-09
3.50496111748384e-09
9.26798081317298e-09
1.57799413873138e-08
-1.02121941250588e-08
3.7136872931031e-09
1.03436470812179e-08
1.36823563234682e-08
-9.55820503684811e-09
3.74099581833485e-09
9.57195986708848e-09
1.56453211108685e-08
-1.01472514210665e-08
3.40068868143409e-09
1.00900663141284e-08
1.25774832034942e-08
-8.2661431623221e-09
3.60155185157661e-09
7.7611558360613e-09
1.63308168794053e-08
-8.69992180422691e-09
3.92177541780311e-09
8.45124774762631e-09
1.35973093118288e-08
-8.03150927460726e-09
3.57158524331922e-09
8.72653320858073e-09
1.49816011124182e-08
-9.55849659224535e-09
3.4245072166939e-09
9.70349938326356e-09
1.27236274756372e-08
-8.08313993064358e-09
3.35431684446953e-09
8.23766819514626e-09
1.45165515249461e-08
-9.35400635594663e-09
3.30487006959722e-09
9.43287381711955e-09
1.25744234997251e-08
-8.09830393022626e-09
3.3206432392244e-09
8.19125139659212e-09
1.4723314806032e-08
-9.52643855273967e-09
4.04180090773386e-09
9.23855956319608e-09
1.63431726711702e-08
-1.01836096621372e-08
3.60625034158495e-09
1.0458082008882e-08
1.33403707612294e-08
-8.75317325566005e-09
3.84785434019979e-09
8.26924636578019e-09
1.7293945336687e-08
-9.36628847918175e-09
4.38408538062229e-09
9.03363151563622e-09
1.51619277072325e-08
-8.85175697941372e-09
3.26008910761521e-09
9.87180601326465e-09
1.19596177613759e-08
-7.78324424482745e-09
3.17272266795448e-09
7.82307929894643e-09
1.43570895197452e-08
-9.07184263027964e-09
3.8528189349515e-09
8.82967030548643e-09
1.52976538197407e-08
-9.61036857732855e-09
3.54501424078158e-09
9.82049174433062e-09
1.30820562714138e-08
-8.2797566809504e-09
3.46259543381957e-09
8.44318927793741e-09
1.49072188854177e-08
-9.57775053191112e-09
3.47084395484389e-09
9.63360266212354e-09
1.30751540606902e-08
-8.29599034848098e-09
3.57432159424653e-09
8.36251721136111e-09
1.52556651009767e-08
-9.66826343277596e-09
3.35969340711013e-09
9.82463874317496e-09
1.25134938104807e-08
-8.19836025242716e-09
3.66712317908058e-09
7.72858986183844e-09
1.62654441919371e-08
-8.75361451033174e-09
3.55164282342072e-09
8.72056258802156e-09
1.16972924128423e-08
-7.23402405339302e-09
3.20524197335042e-09
7.70449137127427e-09
1.50840031664421e-08
-9.78364849743107e-09
3.65680457776601e-09
9.78762948813938e-09
1.35170730727322e-08
-9.43029219095531e-09
3.81168914101353e-09
9.37996088066832e-09
1.58893203778191e-08
-1.024214582937e-08
3.49887899673523e-09
1.01661752158894e-08
1.23976804639851e-08
-7.97780757254285e-09
3.26925667913879e-09
8.11095573996153e-09
1.45316886985897e-08
-9.19624692911898e-09
3.88474416466941e-09
8.98490159877141e-09
1.53552169482138e-08
-9.67104285196085e-09
3.50768610386581e-09
9.89505806731968e-09
1.30450624472458e-08
-8.33909534620826e-09
3.39559843111786e-09
8.5094955923708e-09
1.48703197444795e-08
-9.60401791861437e-09
4.0390782951e-09
9.36331327589181e-09
1.62639856873073e-08
-1.01349293506192e-08
3.54331879971637e-09
1.04442737687113e-08
1.30356858874624e-08
-8.56718513873754e-09
3.70221808632516e-09
8.08878309731947e-09
1.69617311618965e-08
-9.19196848581697e-09
4.11797075167372e-09
8.89024095239098e-09
1.50001038716336e-08
-9.09143255186526e-09
4.04051621033913e-09
9.63428655950671e-09
1.7752037941247e-08
-1.14796100799937e-08
4.54919242785858e-09
1.12881448964063e-08
1.86004458519597e-08
-1.19413062552182e-08
4.47073376163694e-09
1.20324133818468e-08
2.0071332167312e-08
-1.37286488880553e-08
6.87122905746488e-09
1.22681777476581e-08
3.24996136312449e-08
-2.02177737634132e-08
1.14457942470675e-08
1.67831047694585e-08
4.5388592193629e-08
-2.284793180649e-08
1.29676401605928e-08
2.17332934931628e-08
4.1494685527546e-08
-2.3002438039371e-08
1.29580836213401e-08
2.22193618495398e-08
4.33521458770614e-08
-2.28817432038611e-08
1.34758928249483e-08
2.13802040150685e-08
-2.26345626919101e-08
3.22388372005804e-08
8.97453806200518e-08
9.21480229167216e-08
-5.47772965669423e-08
2.28575556012605e-08
6.52779494621298e-08
7.42244408637375e-08
-5.76568492810514e-08
1.5185739773798e-08
6.77756938971166e-08
5.04833943616753e-08
-4.40679335869665e-08
1.29839156953348e-08
4.48249414110103e-08
5.42036289317543e-08
-4.13526339287076e-08
1.16187165595751e-08
4.32373035842257e-08
3.90451993943973e-08
-3.35103461777934e-08
9.88178988681937e-09
3.6056102326379e-08
4.45068146389963e-08
-4.02261775147384e-08
1.04703845684318e-08
4.05324710885846e-08
3.85908524281178e-08
-3.67620337296537e-08
1.05474308648762e-08
3.67908364086456e-08
4.41270996407981e-08
-3.97984233659054e-08
9.58789401568177e-09
3.98121605050522e-08
3.54743278621517e-08
-3.21292154825681e-08
1.01546829283029e-08
3.0275191825746e-08
4.60598829140038e-08
-3.52772363246776e-08
1.10577930755696e-08
3.42751285497332e-08
3.83506189905018e-08
-3.1551888890473e-08
1.00698780627883e-08
3.41151978847306e-08
4.22550811579183e-08
-3.76033404518583e-08
9.65515941906633e-09
3.81646311463368e-08
3.58865395263547e-08
-3.16017283752294e-08
9.45723547508644e-09
3.21506341051316e-08
4.09434446955542e-08
-3.67977633190797e-08
9.31779239026431e-09
3.70867766219529e-08
3.54657405801207e-08
-3.16355594451419e-08
9.36224704214097e-09
3.19342473459424e-08
4.15265673441942e-08
-3.74979149606047e-08
1.13958267585687e-08
3.61515659149819e-08
4.60952868220327e-08
-4.0143275543969e-08
1.01674947416141e-08
4.12890281097089e-08
3.76260277744828e-08
-3.40319678666232e-08
1.08491323660354e-08
3.22226368192069e-08
4.87763546591283e-08
-3.7852779999059e-08
1.23614032461909e-08
3.64540776211231e-08
4.27635630035816e-08
-3.48449617971243e-08
9.19147866925646e-09
3.89101077038394e-08
3.37317196532133e-08
-3.02846173463181e-08
8.94520400036603e-09
3.04229008617207e-08
4.0493579057973e-08
-3.5757368217056e-08
1.08630053491251e-08
3.45881593011359e-08
4.31464588260683e-08
-3.77529852583751e-08
9.99497044185863e-09
3.86559345198162e-08
3.68974660168474e-08
-3.23771348967328e-08
9.76254066858572e-09
3.29617392087269e-08
4.20452958763427e-08
-3.76863972632868e-08
9.78581822602662e-09
3.78681239982146e-08
3.68779897007858e-08
-3.24682191947973e-08
1.00776358814748e-08
3.26315792000294e-08
4.30280496428146e-08
-3.81149121118918e-08
9.47232990394273e-09
3.87494065971539e-08
3.52938451340463e-08
-3.18951393248057e-08
1.03396077252156e-08
3.00938402347994e-08
4.58755665379232e-08
-3.53711214904129e-08
1.00140073855734e-08
3.53188098420332e-08
3.29917874168225e-08
-2.80871698030194e-08
9.03682216076812e-09
2.99128882693915e-08
4.25439309271239e-08
-3.86070236260408e-08
1.03100697505408e-08
3.83569547686424e-08
3.81246596584892e-08
-3.62857359533534e-08
1.07468198973912e-08
3.60317501467987e-08
4.48152682385731e-08
-4.02051032400619e-08
9.86485009022857e-09
4.01421649362377e-08
3.49672472620855e-08
-3.10305122919052e-08
9.21738914581919e-09
3.15541740288777e-08
4.09860387326173e-08
-3.62055329362898e-08
1.09530083111186e-08
3.51740227407496e-08
4.33088233909762e-08
-3.79650963236444e-08
9.88967402082105e-09
3.8952621710255e-08
3.67931538895284e-08
-3.25712615628637e-08
9.57357694171699e-09
3.31956748000223e-08
4.19411917518667e-08
-3.77910461974485e-08
1.1388136136555e-08
3.66433267196604e-08
4.58719489869231e-08
-3.99412255784072e-08
9.9900433556434e-09
4.12354341179584e-08
3.67666787981257e-08
-3.32891761942835e-08
1.04384569646419e-08
3.15451286021377e-08
4.78393736883054e-08
-3.71806462400134e-08
1.1610875515923e-08
3.59494927249666e-08
4.23071781107777e-08
-3.5691197899923e-08
1.13919334431597e-08
3.76011014281637e-08
5.00689922128489e-08
-4.51690030152694e-08
1.28261946523323e-08
4.4256655524311e-08
5.24619153951913e-08
-4.68660416880901e-08
1.26045165924188e-08
4.72059250212298e-08
5.66105197985841e-08
-5.3575652784335e-08
1.93734628311097e-08
4.74357379435381e-08
9.16632578995724e-08
-8.03830766263683e-08
3.22737836128559e-08
6.65038325400965e-08
1.2801473474966e-07
-9.45865997825993e-08
3.65649691478046e-08
9.00489620646355e-08
1.17033009109747e-07
-9.10379814742647e-08
3.65379588827003e-08
8.84530371732826e-08
1.22271376351721e-07
-9.11916008353167e-08
3.79984887626891e-08
8.59156888898764e-08
-8.87932668821874e-08
5.01867062669211e-08
2.1477115359761e-07
1.43519900370898e-07
-1.3887681954461e-07
3.55799677898718e-08
1.61195434355961e-07
1.15607906171851e-07
-1.31469520762983e-07
2.36340010139939e-08
1.5013421768989e-07
7.86306390736311e-08
-9.5597835869312e-08
2.02085086483887e-08
1.00166136836333e-07
8.44236492154074e-08
-1.00192940965406e-07
1.80837262624171e-08
1.03911667735657e-07
6.08151361955462e-08
-7.47768560677434e-08
1.53788416442114e-08
7.83805261805881e-08
6.93221113115986e-08
-8.8913912857369e-08
1.62953347460772e-08
8.90936013066625e-08
6.01081090137678e-08
-7.91069797782226e-08
1.64154150679431e-08
7.91035602229484e-08
6.87306200928378e-08
-8.75778589671662e-08
1.49217354569355e-08
8.81738939651211e-08
5.52531916468446e-08
-6.97970430331754e-08
1.58052642812602e-08
6.79539317792668e-08
7.17392270580664e-08
-8.59393184635363e-08
1.72116570626083e-08
8.38346272079991e-08
5.97329298236539e-08
-7.13531408284843e-08
1.56723678135171e-08
7.45851380805835e-08
6.58147758561163e-08
-8.2970485253131e-08
1.50267812603368e-08
8.41712058294527e-08
5.58953173601322e-08
-6.91408165998109e-08
1.47186606252755e-08
7.01566316221869e-08
6.37718878014964e-08
-8.11954514131283e-08
1.45015337703989e-08
8.17691759233408e-08
5.52399750724079e-08
-6.91432650213433e-08
1.45706684442706e-08
6.95813379641321e-08
6.46799636088281e-08
-8.27547391585304e-08
1.77366767963396e-08
7.91887586751814e-08
7.17959580952847e-08
-8.87959711270423e-08
1.58239040852859e-08
9.15088742489689e-08
5.86045898206862e-08
-7.39486570886493e-08
1.68861352784985e-08
7.21172185649821e-08
7.59702760392959e-08
-9.15400114094031e-08
1.92410575319684e-08
8.83783120853021e-08
6.66063733720686e-08
-7.88550740560759e-08
1.43047596833159e-08
8.60061393700984e-08
5.25391686025556e-08
-6.58929287383758e-08
1.39216366616993e-08
6.70202986909338e-08
6.30708285422636e-08
-8.1528875377226e-08
1.69074355573284e-08
7.82115603323308e-08
6.72030204257818e-08
-8.39643900865661e-08
1.55558049114109e-08
8.5334591071528e-08
5.74698644825888e-08
-7.08486419115362e-08
1.51938895569623e-08
7.19482000227645e-08
6.54880447917089e-08
-8.31735789799126e-08
1.52301820004806e-08
8.34584938484706e-08
5.74395015491422e-08
-7.11264735997475e-08
1.5684579784224e-08
7.11774347031402e-08
6.70186808520871e-08
-8.43135271520119e-08
1.47419395981372e-08
8.57797305072001e-08
5.49720668430654e-08
-6.9368364850616e-08
1.60932627418794e-08
6.74551667332482e-08
7.14523406672684e-08
-8.5995547186718e-08
1.55864760732501e-08
8.62974000224016e-08
5.13864951210053e-08
-6.28904699635009e-08
1.40640009734516e-08
6.48680165451137e-08
6.62647674605097e-08
-8.5516930728655e-08
1.60460298302061e-08
8.43338614865089e-08
5.93819326768063e-08
-7.81256715356424e-08
1.67259745334827e-08
7.74210292451233e-08
6.98024163846703e-08
-8.85732450035859e-08
1.53531473942729e-08
8.89912598889264e-08
5.44635301299401e-08
-6.74906439181012e-08
1.43453033078225e-08
6.95150745161355e-08
6.38378837534346e-08
-8.24323219016696e-08
1.7047491591988e-08
7.94608032974279e-08
6.74559420312378e-08
-8.43660280813931e-08
1.53917589683093e-08
8.60028210706425e-08
5.73074748352584e-08
-7.11696766029744e-08
1.48995674640941e-08
7.2384461097799e-08
6.53257710916611e-08
-8.33694006182628e-08
1.77246611340345e-08
8.02746657122699e-08
7.14481157275219e-08
-8.83247699694131e-08
1.55476628343886e-08
9.13935494957496e-08
5.72661194141384e-08
-7.22856270504815e-08
1.62467643973393e-08
7.07027763136942e-08
7.45109406536568e-08
-9.00469920121771e-08
1.80722013088936e-08
8.73895112265609e-08
6.58955748073019e-08
-8.03892957826347e-08
1.77297438100742e-08
8.20396824103425e-08
7.7985354728799e-08
-9.96636198447663e-08
1.99622225283544e-08
9.72173423535443e-08
8.1712521183475e-08
-1.03053075575645e-07
1.96157017720325e-08
1.03778155924675e-07
8.81741496135087e-08
-1.16919654177712e-07
3.01534713866286e-08
1.02376172869571e-07
1.42768571533279e-07
-1.79726662738217e-07
5.02389033092e-08
1.49271519827754e-07
1.99384450930947e-07
-2.18471648466791e-07
5.69189574526442e-08
2.08505535731138e-07
1.82281721069817e-07
-2.03024420549619e-07
5.68770876337074e-08
1.99184779900788e-07
1.90439204331791e-07
-2.09142581808567e-07
5.91522601092865e-08
2.0069482280374e-07
-2.04272808104058e-07
6.5564054254974e-08
3.77853327182626e-07
1.87646811717764e-07
-2.53728630841377e-07
4.64769079523527e-08
2.89990517404327e-07
1.51157564594904e-07
-2.2820678138787e-07
3.08663460111009e-08
2.54862812256635e-07
1.02810205645385e-07
-1.61554512421079e-07
2.63937345481309e-08
1.72726616537444e-07
1.10383908939224e-07
-1.79540722010794e-07
2.36186892481667e-08
1.85377496076783e-07
7.95164921035167e-08
-1.29267060722965e-07
2.00841317454908e-08
1.32510489898878e-07
9.06398573304204e-08
-1.5096761184219e-07
2.12820844727011e-08
1.51177887890345e-07
7.85928380325947e-08
-1.3373145016371e-07
2.14392319169284e-08
1.33700005831865e-07
8.98663869320586e-08
-1.4862325264458e-07
1.94876742932288e-08
1.49771362074732e-07
7.22440232651552e-08
-1.18000005842889e-07
2.06431131648448e-08
1.17648559894157e-07
9.3798604066334e-08
-1.54105805791574e-07
2.24814273453183e-08
1.50737580440193e-07
7.81009739106453e-08
-1.23623504336146e-07
2.04689637755029e-08
1.2620729601537e-07
8.60537401204873e-08
-1.40780581869601e-07
1.96255322607308e-08
1.42825996151054e-07
7.30836018517944e-08
-1.17040238123602e-07
1.92229781062525e-08
1.18685271521241e-07
8.33827526007124e-08
-1.37784308633251e-07
1.89391965827759e-08
1.38755172067462e-07
7.22268591567486e-08
-1.17024225548597e-07
1.90294057655602e-08
1.17667787795596e-07
8.4569688746752e-08
-1.40387925827135e-07
2.31662600957597e-08
1.34105546591157e-07
9.3873984667958e-08
-1.50735468780771e-07
2.0666139022253e-08
1.55446703696549e-07
7.66260005143486e-08
-1.2501520070269e-07
2.20549171556305e-08
1.24670171954023e-07
9.93306901687317e-08
-1.63629287557066e-07
2.51329031959276e-08
1.58395452757376e-07
8.70882675832181e-08
-1.36489113751072e-07
1.86818552722943e-08
1.45969555297165e-07
6.86956383388618e-08
-1.11449480569987e-07
1.81814176417502e-08
1.14588967645824e-07
8.24659404559766e-08
-1.41765161698425e-07
2.2082932998743e-08
1.35699734948869e-07
8.78687307148949e-08
-1.43565476410525e-07
2.03167495422723e-08
1.44816835538055e-07
7.51422863662738e-08
-1.19925834846102e-07
1.98437697284361e-08
1.21717469499238e-07
8.56265717918089e-08
-1.41137322684092e-07
1.98912741464316e-08
1.41593009295585e-07
7.51025382062208e-08
-1.20429264303945e-07
2.0485166825984e-08
1.20383024160287e-07
8.76278504755999e-08
-1.43134009992481e-07
1.92529688259275e-08
1.45689461432397e-07
7.18764239033355e-08
-1.17301154093727e-07
2.10196416983099e-08
1.16818539903918e-07
9.34238725355396e-08
-1.5433448220803e-07
2.03576543459945e-08
1.55213020846172e-07
6.71882434460401e-08
-1.09074675659626e-07
1.83673062713376e-08
1.09602577687273e-07
8.66422919955148e-08
-1.45267975358185e-07
2.09568536629108e-08
1.43112648037791e-07
7.76432573037206e-08
-1.32098820909698e-07
2.18452809921283e-08
1.30846321086302e-07
9.12676701931855e-08
-1.50352702129283e-07
2.00517970402582e-08
1.51194553473099e-07
7.12116758539502e-08
-1.14144291236039e-07
1.87348490916748e-08
1.18823986367517e-07
8.34688996018157e-08
-1.43295602866161e-07
2.22658256348019e-08
1.378328255211e-07
8.81994788116023e-08
-1.44231025282084e-07
2.01021907979043e-08
1.45961944258745e-07
7.49300952147355e-08
-1.20436183975498e-07
1.9458952847795e-08
1.22426342692022e-07
8.54140980765165e-08
-1.41417406324443e-07
2.31504817333716e-08
1.3594953481369e-07
9.34192103147306e-08
-1.49930563349305e-07
2.03052371759646e-08
1.55257723788438e-07
7.48759690205476e-08
-1.22194091461532e-07
2.12194560122436e-08
1.22291769122862e-07
9.74227306475605e-08
-1.610372266233e-07
2.36048881898534e-08
1.56710365517321e-07
8.61588158259269e-08
-1.38920708958765e-07
2.31556069878852e-08
1.38761169101808e-07
1.01966806765805e-07
-1.69097322026311e-07
2.60717947775348e-08
1.6478813230346e-07
1.06840185244968e-07
-1.74682451634946e-07
2.56164482299834e-08
1.75929799993039e-07
1.15288397505431e-07
-1.97853286665536e-07
3.93845096981424e-08
1.72770929269653e-07
1.86668012837483e-07
-3.05878232530893e-07
6.56306534245856e-08
2.55204533657992e-07
2.6068875814077e-07
-3.77848203562381e-07
7.43578757493774e-08
3.61289095011771e-07
2.38328863210291e-07
-3.45760750539506e-07
7.4303513925692e-08
3.40358428536424e-07
2.48993369570021e-07
-3.59674161242031e-07
7.7278053457084e-08
3.47910476373693e-07
-3.51377196015784e-07
7.86363758672854e-08
5.97528487966788e-07
2.25300985879077e-07
-4.08040061060151e-07
5.57363726556877e-08
4.62638791539644e-07
1.81494233447288e-07
-3.52168565297538e-07
3.70083640033281e-08
3.89173286723381e-07
1.23444354390056e-07
-2.43548806969085e-07
3.16461486435773e-08
2.63644626674134e-07
1.32538725664946e-07
-2.83836227439453e-07
2.83189228364696e-08
2.921959644785e-07
9.5475891814141e-08
-1.96942367995225e-07
2.40793415797973e-08
2.00008185501468e-07
1.08832161675182e-07
-2.30169224677782e-07
2.55171798296872e-08
2.29645781833134e-07
9.43677452927758e-08
-2.00395554208046e-07
2.5706079400413e-08
2.0024214164403e-07
1.07903328188844e-07
-2.25937942896492e-07
2.33649806397099e-08
2.28621791260286e-07
8.67435743720612e-08
-1.78025219680286e-07
2.47515253844949e-08
1.7983618469386e-07
1.12624098030372e-07
-2.4430834231829e-07
2.69579130447412e-08
2.39255502835989e-07
9.37755253900721e-08
-1.89869630171091e-07
2.45429698581272e-08
1.9120632156755e-07
1.03325233152786e-07
-2.14441179484066e-07
2.35312702135938e-08
2.17469799255676e-07
8.77513859650606e-08
-1.77394388948788e-07
2.30484045715104e-08
1.79582984865034e-07
1.00118340358981e-07
-2.09869094935922e-07
2.27078328108073e-08
2.11223953290122e-07
8.67228731991093e-08
-1.77248416305398e-07
2.28158840605455e-08
1.77881886904082e-07
1.01542891720461e-07
-2.13886273973525e-07
2.77788919526873e-08
2.03386011490836e-07
1.12714719577204e-07
-2.29965661920151e-07
2.47782735534984e-08
2.3739619338381e-07
9.20049988509961e-08
-1.88643867249372e-07
2.64445168345998e-08
1.9031513262898e-07
1.19266398877605e-07
-2.58648876126892e-07
3.01385603400313e-08
2.50471298919224e-07
1.04566929860399e-07
-2.09810994647452e-07
2.2398760558097e-08
2.22582896663311e-07
8.24832210244374e-08
-1.68305965036703e-07
2.17981599824754e-08
1.7380441326508e-07
9.9017922639519e-08
-2.18602870832547e-07
2.6479070960345e-08
2.08308142593143e-07
1.0550437961775e-07
-2.19197612345845e-07
2.43604865125076e-08
2.20637917346111e-07
9.02231718502905e-08
-1.81791969547374e-07
2.37929296794083e-08
1.84210372927707e-07
1.02812384035837e-07
-2.15010722567202e-07
2.38500377085852e-08
2.15501894231678e-07
9.01753743429097e-08
-1.82677328215697e-07
2.4562774782381e-08
1.82119193149755e-07
1.05215279717415e-07
-2.18367803181785e-07
2.30837369630495e-08
2.22327718527038e-07
8.63021631625768e-08
-1.77102181093958e-07
2.52035599443935e-08
1.78380416978836e-07
1.12174763628463e-07
-2.4429436811106e-07
2.44096339250805e-08
2.4616535780752e-07
8.06730381003825e-08
-1.66335316172767e-07
2.20214467101626e-08
1.65186279252327e-07
1.04032200998117e-07
-2.21760689236116e-07
2.51277757202288e-08
2.17431322591656e-07
9.32274392252395e-08
-1.98008389164228e-07
2.61936030154105e-08
1.95878937458767e-07
1.09585707241301e-07
-2.28724290797635e-07
2.40423848389875e-08
2.30928109307393e-07
8.55041026569716e-08
-1.72334679305216e-07
2.2461891500016e-08
1.80250386138372e-07
1.00222218255175e-07
-2.20780456923904e-07
2.66983230434063e-08
2.11468206604707e-07
1.05901584573143e-07
-2.20100495348218e-07
2.41027674865678e-08
2.22399393829833e-07
8.99685890744168e-08
-1.82394721520707e-07
2.33309063704036e-08
1.85163359256629e-07
1.02556788251274e-07
-2.15405891806009e-07
2.77598457374412e-08
2.0619411892581e-07
1.12168721014932e-07
-2.28697579195251e-07
2.43453664608494e-08
2.37108026164556e-07
8.99037838663784e-08
-1.8430287385077e-07
2.54421643679268e-08
1.86825894251426e-07
1.16975706476023e-07
-2.54724451214091e-07
2.83043027921464e-08
2.48143671334725e-07
1.03450756242331e-07
-2.13011129529568e-07
2.77637481173164e-08
2.09961757338874e-07
1.22431924410808e-07
-2.57571709030846e-07
3.12610122108854e-08
2.50325395190276e-07
1.28283486823831e-07
-2.65544224575271e-07
3.07109161500889e-08
2.67391880850732e-07
1.38426503505309e-07
-2.99339034281686e-07
4.72269293037347e-08
2.59639881466872e-07
2.24127843926468e-07
-4.69599822937317e-07
7.87161688587775e-08
3.92227382448041e-07
3.12998243922361e-07
-5.88137949147958e-07
8.91844772196179e-08
5.62849110558733e-07
2.86152702448988e-07
-5.29820072064459e-07
8.9119941317223e-08
5.24314430645199e-07
2.98956237614485e-07
-5.59639382414362e-07
9.26905612251436e-08
5.4596613933023e-07
-5.48298658515299e-07
8.964340927853e-08
8.61083493619487e-07
2.57180221085826e-07
-6.00414708922645e-07
6.35286732819074e-08
6.74662530606546e-07
2.07178632105998e-07
-4.98429167868359e-07
4.2173986071302e-08
5.43089892208377e-07
1.40914018058547e-07
-3.36743428864425e-07
3.60627251488624e-08
3.69909756392456e-07
1.51298288761183e-07
-4.11441585246308e-07
3.22712189276189e-08
4.2226723613741e-07
1.08987926753658e-07
-2.76278767312785e-07
2.74386412990609e-08
2.76773478746772e-07
1.24235086576625e-07
-3.20936216577036e-07
2.9079432649998e-08
3.1943287775112e-07
1.0772371031038e-07
-2.76099050303125e-07
2.92953470636774e-08
2.75777996869286e-07
1.23174674382036e-07
-3.14434823026066e-07
2.66256046189532e-08
3.1905170622369e-07
9.90195310295479e-08
-2.46289518002207e-07
2.82062506236149e-08
2.5290092101263e-07
1.28564399031883e-07
-3.5473949880604e-07
3.07235988921085e-08
3.47925443774932e-07
1.07046114367075e-07
-2.67812034234763e-07
2.79699500309388e-08
2.6527634114153e-07
1.17948343103268e-07
-2.98773321310294e-07
2.68164420141823e-08
3.02919812173759e-07
1.00169507252373e-07
-2.46218844420033e-07
2.62659181096301e-08
2.48938142127786e-07
1.14287831145169e-07
-2.92407332527778e-07
2.58773666315633e-08
2.94185059988482e-07
9.89956583457821e-08
-2.45897521886085e-07
2.6000367234809e-08
2.46411160254034e-07
1.15913098509279e-07
-2.98013712767424e-07
3.16600667384194e-08
2.82436335337537e-07
1.28666329921685e-07
-3.20757993877559e-07
2.82366008101749e-08
3.31397425043511e-07
1.05025497037881e-07
-2.6100555892546e-07
3.01359267095578e-08
2.67288003267929e-07
1.3614654993775e-07
-3.74595038104975e-07
3.43503234700732e-08
3.63138327255652e-07
1.19365340635029e-07
-2.95985965381146e-07
2.55244501002078e-08
3.10336433356762e-07
9.41564190382057e-08
-2.33020650744814e-07
2.48389401977496e-08
2.42216417714602e-07
1.13032629176903e-07
-3.09444010863689e-07
3.01773196966132e-08
2.93893626948649e-07
1.20435785111663e-07
-3.06671821131976e-07
2.77620046226893e-08
3.0746058350257e-07
1.02990993261733e-07
-2.5233805510394e-07
2.71146345315272e-08
2.55386549691226e-07
1.17362981131225e-07
-2.99596694656341e-07
2.71798982053988e-08
3.00086176616143e-07
1.02936339234975e-07
-2.53693967861013e-07
2.79930220717944e-08
2.52404750372785e-07
1.20105959436546e-07
-3.04584667931707e-07
2.63053252087223e-08
3.10204249426294e-07
9.85156002826191e-08
-2.45142380852012e-07
2.87222210214666e-08
2.50724792731831e-07
1.28052274715873e-07
-3.54519209926074e-07
2.78171681355435e-08
3.57851296355507e-07
9.20897735811692e-08
-2.33735602891982e-07
2.5094241463724e-08
2.28335929642654e-07
1.18755760099246e-07
-3.09493581503563e-07
2.86364018488891e-08
3.02483624157865e-07
1.06421840993955e-07
-2.72876348461626e-07
2.98518253375769e-08
2.69684299846834e-07
1.25094974883331e-07
-3.18473263854006e-07
2.73989290094865e-08
3.22406870073368e-07
9.76046342996949e-08
-2.38558539555553e-07
2.55955643094548e-08
2.51193845386685e-07
1.1440739055592e-07
-3.12348523212602e-07
3.04271462051321e-08
2.9823179691322e-07
1.20889296311902e-07
-3.07825410175711e-07
2.74676942395986e-08
3.09937615082426e-07
1.02700620165789e-07
-2.53006014035162e-07
2.6587276659418e-08
2.56584448478246e-07
1.17070494993409e-07
-3.00081134496531e-07
3.16381914904439e-08
2.86348628926458e-07
1.28043125260768e-07
-3.18952814690924e-07
2.77430151696768e-08
3.31000295994816e-07
1.02626994607992e-07
-2.54922267835265e-07
2.89927770928094e-08
2.62555082340628e-07
1.33531970981637e-07
-3.69106046185785e-07
3.22570937243112e-08
3.60094002834274e-07
1.18090765732778e-07
-2.99892686092677e-07
3.16396604340884e-08
2.91033047841727e-07
1.39758755107872e-07
-3.58854795459702e-07
3.56261194573526e-08
3.48073375734208e-07
1.46438513167524e-07
-3.69395148712426e-07
3.49937313181006e-08
3.71940857857178e-07
1.58015525569187e-07
-4.14951772619286e-07
5.38260053226067e-08
3.58123035833267e-07
2.55840689225788e-07
-6.58013623273251e-07
8.97367686542736e-08
5.50908170120906e-07
3.57280951269859e-07
-8.3572253044284e-07
1.01672337190238e-07
8.00741564914601e-07
3.26637497600809e-07
-7.41784623502472e-07
1.01599489294264e-07
7.37247784603632e-07
3.4125286652098e-07
-7.93128195031565e-07
1.05673134183801e-07
7.79609483674401e-07
-7.78184130894982e-07
9.88048010311291e-08
1.16759146140399e-06
2.83912801212612e-07
-8.12120365346355e-07
7.00099024058803e-08
9.12363900068547e-07
2.28714979126367e-07
-6.64274828865441e-07
4.64682952264417e-08
7.24939373255786e-07
1.55561974208438e-07
-4.44575962097937e-07
3.97323799578702e-08
4.89110669799064e-07
1.67031845903675e-07
-5.52541576021026e-07
3.55551132907282e-08
5.66686198161248e-07
1.20317712546475e-07
-3.64069005855253e-07
3.02304665444706e-08
3.6578963337345e-07
1.37150700436798e-07
-4.2766085840988e-07
3.2041320418662e-08
4.24151453706592e-07
1.18922505611361e-07
-3.62011427482456e-07
3.22800270943613e-08
3.61417158506461e-07
1.35979930254887e-07
-4.17827866167064e-07
2.93359092852752e-08
4.25591422034688e-07
1.093127879006e-07
-3.25341641152882e-07
3.10767364224279e-08
3.34162986529238e-07
1.41933377558466e-07
-4.77544875001909e-07
3.38540596700616e-08
4.68292496804926e-07
1.18173209390251e-07
-3.55514324998115e-07
3.08195511105133e-08
3.51823899391413e-07
1.3020986511458e-07
-3.97900028747765e-07
2.95478366785181e-08
4.03233771359424e-07
1.10581498530353e-07
-3.26630344396617e-07
2.89409531110778e-08
3.29753512250802e-07
1.26169111890799e-07
-3.89379743545582e-07
2.85122756992659e-08
3.91505794344743e-07
1.09285878113116e-07
-3.25995166070014e-07
2.86476547414167e-08
3.26159502470826e-07
1.27962150907871e-07
-3.97015154363078e-07
3.48885176584115e-08
3.74827690727126e-07
1.42041712426624e-07
-4.27773397446824e-07
3.11114808538174e-08
4.42260067631281e-07
1.15942988257985e-07
-3.44855393085331e-07
3.32033932816205e-08
3.52966477268346e-07
1.50303447310868e-07
-5.03624230804856e-07
3.78527220978868e-08
4.87752483908023e-07
1.31773955501085e-07
-3.93486358524209e-07
2.81225500132261e-08
4.13698824405784e-07
1.03944193013919e-07
-3.08059993033628e-07
2.73653818817211e-08
3.19677319310374e-07
1.24785325054507e-07
-4.11666641811589e-07
3.32524665213508e-08
3.89609167519868e-07
1.32955872879073e-07
-4.0760841787725e-07
3.05904247835616e-08
4.09520615918257e-07
1.13696146955826e-07
-3.34803649629883e-07
2.98764231618494e-08
3.38370698595433e-07
1.29563731009844e-07
-3.99026766276384e-07
2.99485429229877e-08
3.99323491326401e-07
1.13635700604435e-07
-3.36788896164174e-07
3.08455920223862e-08
3.34329401823631e-07
1.32591951780873e-07
-4.0618835231672e-07
2.89832900363904e-08
4.13690679675972e-07
1.08756408342736e-07
-3.2404432277755e-07
3.16463260409172e-08
3.30859232033906e-07
1.41369026496152e-07
-4.76314540686102e-07
3.06486881720203e-08
4.81195607474787e-07
1.01662490399801e-07
-3.07743373904275e-07
2.76482527331863e-08
3.01394311518178e-07
1.31101725038241e-07
-4.12849430544981e-07
3.15540765336584e-08
4.01701026511714e-07
1.17485078459758e-07
-3.57858607663575e-07
3.28942906486235e-08
3.53266359515938e-07
1.38099661503712e-07
-4.2343672566707e-07
3.01896613331734e-08
4.30270696384627e-07
1.07750620753212e-07
-3.15312202392266e-07
2.81993688585588e-08
3.31618806308542e-07
1.26303020968249e-07
-4.15236257826342e-07
3.35277082824858e-08
3.95187797791463e-07
1.33456637822522e-07
-4.08952861949419e-07
3.02653838262182e-08
4.12834617149026e-07
1.13375862618253e-07
-3.35406214621581e-07
2.92943257037268e-08
3.39768123803649e-07
1.29239872725004e-07
-3.99696102150455e-07
3.48642043858646e-08
3.80033542461922e-07
1.41353801713798e-07
-4.25296402574438e-07
3.05673229495248e-08
4.41719230583472e-07
1.13295262008212e-07
-3.36667840898225e-07
3.19427244925882e-08
3.46892088187116e-07
1.47417460044553e-07
-4.96462458622615e-07
3.55426935082872e-08
4.84186323404157e-07
1.30366149226594e-07
-3.97980587191653e-07
3.48621623437044e-08
3.85564005285715e-07
1.54287120692052e-07
-4.77919831438278e-07
3.92558175682205e-08
4.62487036153809e-07
1.61661311733487e-07
-4.91184301225501e-07
3.85522498127271e-08
4.9444784912943e-07
1.74439587817451e-07
-5.49484605980294e-07
5.93155383820727e-08
4.71568063731029e-07
2.82429142312631e-07