/*--------------------------------*- C++ -*----------------------------------*\
| =========                 |                                                 |
| \\      /  F ield         | OpenFOAM: The Open Source CFD Toolbox           |
|  \\    /   O peration     | Version:  2.3.0                                 |
|   \\  /    A nd           | Web:      www.OpenFOAM.org                      |
|    \\/     M anipulation  |                                                 |
\*---------------------------------------------------------------------------*/
FoamFile
{
    version     2.0;
    format      ascii;
    class       volVectorField;
    location    "0";
    object      U;
}
// * * * * * * * * * * * * * * * * * * * * * * * * * * * * * * * * * * * * * //

dimensions      [0 1 -1 0 0 0 0];

internalField   nonuniform List<vector> 
10000
(
(0.628705330606823 0 0.00271255626499707)
(0.496499932761033 -1.57235638536296e-20 -0.00164605005859876)
(0.459051079585005 -9.40457492119009e-21 0.00196907027493616)
(0.387506645026506 0 -0.00180391801046041)
(0.356882947357542 0 0.00212151088281507)
(0.262125109648813 6.70375608337227e-21 -0.0014035899490203)
(0.253332102530983 -2.36093848803435e-21 0.00141919225572536)
(0.26818276837159 -2.49933985211626e-21 -0.00126775463647204)
(0.262732001722993 0 0.00132775776183348)
(0.202228381050602 0 -0.00106648293427591)
(0.195295427983545 0 0.00114581361577827)
(0.217094029988424 0 -0.00126254804701707)
(0.219443702568722 0 0.00127879976247028)
(0.195830765213169 0 -0.00118169444827233)
(0.196138182779533 0 0.00118339497744798)
(0.218235672581003 5.99177129787076e-21 -0.00125451908839278)
(0.214404766629301 0 0.00124744921249744)
(0.179869497680057 0 -0.00102195500576554)
(0.182130654824701 0 0.000959522706229202)
(0.224382687646339 0 -0.0010755836746361)
(0.227987508799678 0 0.00104483974824182)
(0.197215863793881 4.74246323001984e-21 -0.000992946885368432)
(0.193273702498425 0 0.00107887368030813)
(0.208856953987259 -1.94645059286093e-21 -0.00118173049367971)
(0.207201267031367 -1.93102035319037e-21 0.00119965739443876)
(0.18178280322039 0 -0.000999330056619058)
(0.180992656069333 0 0.00101843460517812)
(0.201175963049018 0 -0.00115644907566989)
(0.200619330749514 -1.86967973927542e-21 0.00116619957177853)
(0.178756404574814 -1.66592733935764e-21 -0.00100120480339958)
(0.178933966320806 7.50322688224712e-20 0.00101269603052456)
(0.203124468376869 -9.33668134708819e-20 -0.00117776711277709)
(0.211242685436811 0 0.00114217622490573)
(0.229477751539106 0 -0.00125901410931526)
(0.224574671129678 0 0.00129294751491833)
(0.190771525496776 0 -0.00108216722712094)
(0.193491310349594 0 0.00102233865921137)
(0.237997495290499 0 -0.00115796753198925)
(0.244033956068107 0 0.0011168406796686)
(0.220033404389431 0 -0.00109435527274255)
(0.207380352058035 0 0.00122046538187081)
(0.171331304299298 -1.59672882545893e-21 -0.000962253527540264)
(0.170347802699175 3.03182599673892e-21 0.000967178391792244)
(0.197336624949033 0 -0.00112156477397944)
(0.204992605545551 -1.91043664565072e-21 0.00109162466591207)
(0.215580727227705 -2.00911306188711e-21 -0.00118814350078275)
(0.212115707817309 0 0.00121412132600647)
(0.187174280165336 0 -0.00102363806438612)
(0.186246475062574 0 0.00104384346820219)
(0.206792698055391 0 -0.00118411088555482)
(0.206885553317178 0 0.00119101596364655)
(0.186261630748673 0 -0.00102564505573252)
(0.187426499367843 0 0.00103386986616746)
(0.211972951135089 0 -0.00119530112389316)
(0.209556838422932 0 0.00121463402535666)
(0.178687664144025 0 -0.00101357490845629)
(0.18214846297974 0 0.000955496528636924)
(0.224384923777213 0 -0.00108222178006198)
(0.223084938164713 0 0.00107813552401829)
(0.171660333914017 0 -0.000894352656132386)
(0.167760829806362 0 0.000952517198061608)
(0.205885714581964 0 -0.00120956634312531)
(0.21096904572975 0 0.00121005851865415)
(0.193329798205994 0 -0.00116588040167347)
(0.195073364916276 0 0.00115965787038113)
(0.221778230417275 0 -0.00126625101871149)
(0.218256863647298 0 0.0012568586639926)
(0.1789507701903 0 -0.000986307667759302)
(0.176365865532893 0 0.0010027689645854)
(0.200388825854499 0 -0.00113694505392876)
(0.207317492390825 0 0.00111081613091683)
(0.216588115691914 0 -0.00119564474742996)
(0.212343497191037 0 0.00122334006629972)
(0.186337622886705 0 -0.00103097418775163)
(0.18507582938877 0 0.00105204101191979)
(0.205623118249767 -1.91631273358315e-21 -0.00118735835983668)
(0.212866900625827 -1.98382144819026e-21 0.0011575997033858)
(0.228555678721067 0 -0.0012529956933429)
(0.222974814273809 0 0.00129124038259723)
(0.186633193496374 -1.73933538334907e-21 -0.00105917325237729)
(0.18842195475579 -8.39582653404822e-20 0.00100002772932077)
(0.232618236812797 9.32424550236623e-20 -0.0011364161039138)
(0.237298448267145 0 0.00109911310091628)
(0.21521601494022 0 -0.00112398670377595)
(0.214344093575046 0 0.00119110051485023)
(0.245323169423949 0 -0.00141924047952136)
(0.251049440012721 0 0.00139556936725598)
(0.260600138667528 0 -0.0014763206326409)
(0.259716913666347 0 0.0014875843359534)
(0.276274977041323 0 -0.00169729233791838)
(0.30329783586106 -2.82659610395936e-21 0.00151673221896132)
(0.443205502397844 -1.60687065429023e-20 -0.00249955205193313)
(0.494702303701793 0 0.00207491905168233)
(0.639796130224705 0 -0.00282472222202267)
(0.656927856055646 1.28331228582931e-20 0.00268691790608552)
(0.613093364783085 -5.71374771382488e-21 -0.00284382404678109)
(0.612985784896768 7.40739244970663e-21 0.00274701122653609)
(0.63389559000051 0 -0.00282890237304555)
(0.639724672452363 1.26246298080437e-20 0.00264326495300501)
(0.628677114865941 0 -0.0027983430956951)
(0.628682860204262 5.89435479451435e-21 0.00480951477228457)
(0.496496099785933 -4.84743847936386e-21 -0.0029322097337843)
(0.459050265710988 -4.48184371021054e-21 0.00349691043495953)
(0.387507430920339 -3.78334982388094e-21 -0.00311119929346952)
(0.356885011212831 5.66607414660056e-21 0.00365756782781884)
(0.262121488908349 -2.55916973396229e-21 -0.00238658176800006)
(0.253332802817706 -2.47336318853888e-21 0.00242461518276705)
(0.268182296989286 -2.61834319840688e-21 -0.00222233972745506)
(0.262733039361136 -2.56514048216794e-21 0.00232439894223097)
(0.202227443053936 -6.51395191465723e-21 -0.00181452264906845)
(0.195294417187505 -1.90671723924482e-21 0.00195178220106856)
(0.217094715586529 -2.11956000954372e-21 -0.00217201781477471)
(0.219444119402171 -7.62357959003445e-21 0.00219086840868996)
(0.195830273362387 -1.91194896179539e-21 -0.00199467945761512)
(0.196137807338656 -1.91495150709418e-21 0.00199651210338062)
(0.218236002806846 -2.13070273471349e-21 -0.0021508009057662)
(0.214405965592492 -2.09330894697122e-21 0.00214892991435646)
(0.179868013300873 -1.75610468895386e-21 -0.00173953749414239)
(0.182130378346931 -5.87599617756412e-21 0.00163795186173743)
(0.224383127490671 -2.1907189337182e-21 -0.00189377983058791)
(0.227987934826206 -2.22591373544273e-21 0.00183991765518079)
(0.197216039252755 -1.92547860463299e-21 -0.00170457219749018)
(0.193272729241526 -1.88697890102457e-21 0.00184488515638437)
(0.208857576676825 -2.03913838261055e-21 -0.00203092104100503)
(0.207202207380403 -2.02297652186581e-21 0.00206133602037656)
(0.181781868942614 -1.77479022844899e-21 -0.00170894178648174)
(0.180991846056374 -1.76707700101378e-21 0.00173923362814301)
(0.201176724838 -1.96414795111699e-21 -0.00198742470580558)
(0.200620131097383 -1.95871376156989e-21 0.00200326668379265)
(0.178755613201125 -1.74524399729829e-21 -0.0017110516516562)
(0.178933056069715 5.31640135658995e-21 0.00172791656950993)
(0.203125135900357 -5.33078899006223e-21 -0.00202500061438659)
(0.211242266575238 -2.06242081640992e-21 0.00195462616948708)
(0.229478528826923 -2.24046684617068e-21 -0.00216721689610486)
(0.224575582847862 3.38231906566392e-21 0.0022283757660409)
(0.190770130397179 -1.86254528726259e-21 -0.00184244823343831)
(0.193490919567943 -1.88910915780717e-21 0.00174369411169045)
(0.237997982487161 -2.32364479563212e-21 -0.00203338558715252)
(0.244034284015385 -2.382578995344e-21 0.001958828395649)
(0.220033938617253 -2.148256514561e-21 -0.00188170332515166)
(0.207381033096691 -2.02472245030033e-21 0.00210068608854041)
(0.171329998501024 -1.67274552158879e-21 -0.001639308939964)
(0.170346981384386 -1.66314803431925e-21 0.00164697922537501)
(0.197337266520597 -1.92666218235522e-21 -0.00193047161153548)
(0.204992262304919 -2.00140017353038e-21 0.0018696935749216)
(0.215581358748211 -2.10478465849012e-21 -0.00203959891951501)
(0.212116555910279 3.15159677108299e-21 0.0020875309416068)
(0.187173402313166 -1.82742936566367e-21 -0.00175079983609969)
(0.186245647759387 2.64234221077352e-21 0.00178301240442007)
(0.206793456789944 -2.01898576878336e-21 -0.00203532682903495)
(0.206886370273499 3.09765245156077e-21 0.00204555764162311)
(0.186260820596111 -6.2102060556675e-21 -0.00175542124883647)
(0.187425624721257 -1.82989188773961e-21 0.00176532082244855)
(0.211973883048443 -7.21743074752102e-21 -0.00205767762033848)
(0.209557775296078 -2.0459746291221e-21 0.00209173469295)
(0.178686328183987 -6.06399585516409e-21 -0.00172653859566118)
(0.182148109076975 -1.77836593935739e-21 0.00162873997112051)
(0.224385556031514 -6.94447169699078e-21 -0.0019001349478584)
(0.223085906707069 -2.17805378298414e-21 0.00189645895297111)
(0.171659686300046 -5.4812536531219e-21 -0.00152102972005358)
(0.167759204750574 -1.63788280456992e-21 0.00161990992310707)
(0.20588704231306 -7.22345108262381e-21 -0.00208383812768)
(0.210969270948687 3.12704742668083e-21 0.00207324089360855)
(0.193329538369989 -6.81269867634067e-21 -0.00196866045278578)
(0.195072847464597 2.98782587853597e-21 0.00195555570380932)
(0.221778731527216 -2.16529144453109e-21 -0.00217240010180519)
(0.218258306870044 3.28899222995054e-21 0.0021664182940424)
(0.178949460253728 -1.74713658348841e-21 -0.00167980771217364)
(0.176365088935409 2.55137376525145e-21 0.00170809178968998)
(0.200389382881938 -1.95646089839718e-21 -0.00195512804010388)
(0.207317189769838 2.73331316613615e-21 0.00190160719365987)
(0.216588695798933 -7.24664573259379e-21 -0.00205134582169708)
(0.212344346135283 3.18936936944359e-21 0.00210351815964631)
(0.18633673976985 -6.22669229994635e-21 -0.00176171476450254)
(0.185075023164246 -1.80694226851396e-21 0.00179594166337082)
(0.205623662448097 -2.0075647201426e-21 -0.00204096445316751)
(0.212866562238462 -7.0347531696064e-21 0.0019811750145681)
(0.22855636769356 -7.62636202455959e-21 -0.00215641974681523)
(0.222975813507958 3.39067658353933e-21 0.00222547323680117)
(0.186631692175754 -1.82214048914303e-21 -0.00180245236952172)
(0.188421556537221 -1.63694162769922e-20 0.00170674745202332)
(0.232618747638511 1.04264790678468e-20 -0.00199693491339271)
(0.237298512345802 -2.31681566146601e-21 0.00193092475412368)
(0.215216489173055 -6.92582890389466e-21 -0.00192846572899688)
(0.214342571420782 -2.0926900108961e-21 0.00203408835102172)
(0.245324223544709 -8.49814799295591e-21 -0.00243944823801785)
(0.251049145741129 3.53298974460893e-21 0.00239191496691207)
(0.260600613042417 -2.54432097241505e-21 -0.00253240941806571)
(0.259715774466611 3.84629406245647e-21 0.00255096907663875)
(0.276275127310608 -2.69735589784895e-21 -0.00289831208841125)
(0.303293699883317 -2.96114622450595e-21 0.00257101814109256)
(0.443208380079812 -4.32717468858601e-21 -0.00433215490754824)
(0.49470062731625 4.14291623415188e-21 0.00358656922682342)
(0.6397992853297 -6.24654992479062e-21 -0.00505706045593206)
(0.6569277575779 -6.41378027263121e-21 0.00481365758952595)
(0.613093674588796 -5.98581513719376e-21 -0.00491090046595708)
(0.612985861824121 -2.98310966380224e-20 0.00476586405283077)
(0.633895055145936 -6.18890517673289e-21 -0.00491231828841437)
(0.639724829997969 -6.24582299533413e-21 0.00462046222479199)
(0.62867791435733 -6.13796868594908e-21 -0.00479839501213508)
(0.628633099091666 6.42977430679666e-21 0.0080843524680159)
(0.496487675318439 -8.396346734441e-21 -0.00514115969285541)
(0.459049274242042 4.69523993143215e-21 0.00601245073313823)
(0.387508290927531 3.96350567012255e-21 -0.00502095638373288)
(0.356889690060312 3.65033302068589e-21 0.00578510633607943)
(0.262113586653832 2.68094570165701e-21 -0.00370786864135969)
(0.253333737732105 -7.49738040593158e-21 0.00384924577012084)
(0.268181750344108 1.25917970044992e-20 -0.0037577740094534)
(0.262735739566887 2.68730919543587e-21 0.00390653385213424)
(0.202224970469208 9.60305111014729e-21 -0.00287482554265018)
(0.195292104835934 1.99748336479372e-21 0.00303808147061218)
(0.217096256860845 2.22050021941661e-21 -0.00342843127057693)
(0.219445312153737 -6.77489554643204e-21 0.00344133319716124)
(0.195828985066958 2.00297467398545e-21 -0.00307610865112965)
(0.196136761868635 2.0061226714016e-21 0.00307678252625895)
(0.218237043089601 1.10950496320874e-20 -0.00338160541952711)
(0.214408606204502 2.19301043696517e-21 0.00339779374537342)
(0.179864729593556 1.83968934933688e-21 -0.00270595421593231)
(0.182129294440774 -4.97196116269678e-21 0.00260780210141104)
(0.224384504722987 2.29504575148178e-21 -0.00321807601148523)
(0.227989217513716 2.33191541316314e-21 0.00313559622603047)
(0.197215984186465 9.17732504817805e-21 -0.00273193878656541)
(0.1932706456449 1.97680751048772e-21 0.00288579348110936)
(0.208858970951469 2.13624775263691e-21 -0.00320101273949056)
(0.207204273816618 2.11932320771783e-21 0.00324779088965689)
(0.181779798242085 1.85927702171662e-21 -0.00267452880414378)
(0.18099005699126 1.85119940376918e-21 0.00271606925483862)
(0.201178424418638 2.05768971802131e-21 -0.00313250227669946)
(0.200621908514002 2.05199757156876e-21 0.00315540637478526)
(0.1787538391156 1.8283269583601e-21 -0.0026754919577438)
(0.178931037581415 1.83013937667588e-21 0.00269505159958562)
(0.203126587980184 2.07761589122405e-21 -0.00319248622611281)
(0.211241355741805 1.01860307886311e-20 0.00306207293524411)
(0.229480297724643 2.34716645426079e-21 -0.00342309924066002)
(0.224577687053758 2.29702165569158e-21 0.00352553943397154)
(0.190767008716026 1.9511998540947e-21 -0.00286668648090907)
(0.193489604010646 1.97904705669738e-21 0.00277003076222017)
(0.237999439429463 2.43430179366427e-21 -0.00343514001712224)
(0.244035319647875 2.49603788042668e-21 0.00331406976111883)
(0.220034784261633 2.25055601509251e-21 -0.00301852629390001)
(0.207382603284971 2.12114719413441e-21 0.00331629601959689)
(0.171327076240906 1.75236466941384e-21 -0.00255333650126776)
(0.170345097042235 1.74232080657789e-21 0.00258693726703127)
(0.197338700675417 -6.14239689532907e-21 -0.00311373349661206)
(0.204991575186977 2.0966913214584e-21 0.00299462455841068)
(0.215582759338241 -6.26411284865482e-21 -0.00323137187377466)
(0.212118406888273 2.16958585950941e-21 0.00329171982122484)
(0.187171441724699 -5.26805783819505e-21 -0.00274045403034271)
(0.186243819708543 1.90493584969034e-21 0.0027851654371558)
(0.206795146124592 -6.29433606824845e-21 -0.00320860950863068)
(0.20688816696279 2.11609000900481e-21 0.00322099798273607)
(0.186259017582907 1.90509129632886e-21 -0.00275024806951307)
(0.187423680488506 9.14006707505633e-21 0.00275593789974807)
(0.211975989499164 2.16812918840721e-21 -0.00325024930965166)
(0.209559916847977 1.08081931496236e-20 0.00330601896371866)
(0.178683347955411 1.82760596188172e-21 -0.00268835931028742)
(0.182146912249297 8.65052209977288e-21 0.00258974625880559)
(0.224387355059224 2.29507490524211e-21 -0.00322206125843239)
(0.223088414670161 1.07438827184729e-20 0.00322868611681203)
(0.171657824968127 1.75574762788575e-21 -0.00241528857692506)
(0.167755582622607 8.31071954172223e-21 0.002516258250891)
(0.205889949719371 2.10588006047743e-21 -0.00329526210885489)
(0.210970070199433 2.15784046183928e-21 0.00325721493495738)
(0.193328737770586 1.97740168737358e-21 -0.00303741189909151)
(0.195071497973422 1.99522695745766e-21 0.00301196209078341)
(0.221780146798624 -6.69202952120168e-21 -0.00341882768410334)
(0.218261465805803 2.23241818960808e-21 0.00342825431259657)
(0.178946503292294 -5.02483505191376e-21 -0.00261555502857798)
(0.176363307105802 1.80387615976488e-21 0.00268320218149914)
(0.200390629244814 -6.20522674142558e-21 -0.00314961628281838)
(0.207316583928365 2.12047193608092e-21 0.00304334324959804)
(0.216589996821668 2.21532209914715e-21 -0.00324766577959321)
(0.212346203305548 2.17191580292647e-21 0.00331733659334146)
(0.18633475757516 1.90586597882155e-21 -0.0027541306144507)
(0.185073225921797 9.23926141374688e-21 0.00280295792283288)
(0.205624849521292 2.10316856716789e-21 -0.00321658644827599)
(0.212865821902621 1.03124207435113e-20 0.00310395710729102)
(0.228557948818252 2.33773250095992e-21 -0.00340522566478557)
(0.222978103898537 2.28066082663584e-21 0.00352105495277153)
(0.186628355672491 1.90886895385652e-21 -0.00280281635072742)
(0.18842021665145 9.04163738152121e-21 0.00271449333475245)
(0.232620264120656 2.37928260482057e-21 -0.00337765919327304)
(0.237299025183012 1.10091039888116e-20 0.00327442312306574)
(0.215217057844271 2.20127942819263e-21 -0.00308172305980704)
(0.214339308084285 1.05169445004597e-20 0.00317624219842472)
(0.245326515142011 2.50924446408455e-21 -0.00384503907177283)
(0.251048561427759 2.56777059998727e-21 0.00375587377165669)
(0.260601628515795 -7.76593757344394e-21 -0.00398007611891292)
(0.259713464256754 2.65639681082673e-21 0.00400834894092703)
(0.276275206438307 -9.03732301479918e-21 -0.00452633601378946)
(0.303284469724687 -7.32191020929644e-21 0.00397722998533294)
(0.443214945482703 4.53328352097697e-21 -0.0069054339488968)
(0.494695736851113 -9.95387749050696e-21 0.00572843772484678)
(0.639807392236278 6.54406702072091e-21 -0.00831111922500291)
(0.656928979415187 6.71918974571531e-21 0.00792607139475496)
(0.613093125090259 6.27082861063947e-21 -0.00780681453524358)
(0.612985808930884 6.2697309613347e-21 0.00763625365148602)
(0.633894181502602 6.48358561988311e-21 -0.00797331874580941)
(0.63972565577679 6.5432310052648e-21 0.00760898058794213)
(0.628678905146365 6.43024281950142e-21 -0.00778036388957872)
(0.62855272392289 4.5092539505102e-20 0.0115170368744116)
(0.496475498923255 -1.03097223375945e-20 -0.00762987624682209)
(0.459050957732218 0 0.00876832701342067)
(0.387505776994966 0 -0.00698993269611408)
(0.356897842779813 3.24676091066151e-18 0.00787069363347987)
(0.262102230182886 -2.17114786398429e-18 -0.00499748689710347)
(0.253332693381859 2.23903080773687e-18 0.00530338520478873)
(0.268182601607796 -2.31372327929532e-18 -0.00543633112703935)
(0.262741515995054 0 0.00562203229034524)
(0.202219167891596 0 -0.00396538008450822)
(0.19528889184332 0 0.00409844629683808)
(0.217098691669712 1.74525737277872e-20 -0.00466184650660661)
(0.219447541019614 -8.1180170024266e-21 0.00466942505869564)
(0.195826714585293 0 -0.00413629224818021)
(0.196134836653742 0 0.00413561470500311)
(0.21823910454523 1.72806266878764e-20 -0.00459032152810827)
(0.21441264733068 -8.10178922304712e-21 0.00462421715062178)
(0.179860134111619 0 -0.00364963920147837)
(0.182125625713084 0 0.00360699027784204)
(0.224388114000214 0 -0.00466502589283691)
(0.227992532580049 0 0.00455866548347705)
(0.197213882013381 1.46303131984926e-20 -0.00378916714519398)
(0.193268005318672 -6.57245589849409e-21 0.00390219091952011)
(0.208861149620293 0 -0.00434836793672225)
(0.207207416947742 0 0.0044114531720927)
(0.181776613086638 0 -0.00361823404551787)
(0.180987317280076 0 0.0036699448512041)
(0.20118106365392 0 -0.00425564257467655)
(0.200624647668721 0 0.00428566002567398)
(0.178751069130733 0 -0.00361797044038379)
(0.17892794404034 0 0.00363899088886246)
(0.203128771501992 1.62600083419731e-20 -0.00433654427760202)
(0.211239982723787 -6.8544079105295e-21 0.00414515170824571)
(0.229483097772838 0 -0.00465504297488212)
(0.224581061469738 0 0.00479932333169153)
(0.190762601487038 0 -0.00386665445180587)
(0.193485605944266 0 0.00382435708704225)
(0.238003135161481 0 -0.00495894840784409)
(0.244038202610758 0 0.00479578998422181)
(0.220034245127248 0 -0.004184989031165)
(0.207385549250158 1.8681592836831e-18 0.00450820496975194)
(0.171322761243322 -1.46106555186844e-18 -0.00344646421746255)
(0.170341543390171 0 0.00352938612050169)
(0.197341244163891 1.61440564552305e-20 -0.00433948603582944)
(0.204991021656569 1.58073319576218e-20 0.00415714226378764)
(0.21558437822154 -7.52091417120008e-21 -0.00442180494978355)
(0.212121387763477 -2.00158759765839e-20 0.00447275222831025)
(0.187168399339272 0 -0.00370750239784488)
(0.186241018564546 0 0.0037636897049139)
(0.206797762120949 0 -0.00435924773542197)
(0.206890904962726 0 0.00437364055048719)
(0.186256226411243 0 -0.00372268539098723)
(0.187420683407411 0 0.00372277713790131)
(0.211979308228745 0 -0.00442020496493568)
(0.209563313502373 0 0.0044983616190624)
(0.178679183249211 0 -0.003627726836698)
(0.182143133314626 0 0.00358116673062611)
(0.224391637418508 0 -0.00467056272620327)
(0.223093665865198 0 0.00469350239975911)
(0.171652954615559 0 -0.00334196272257872)
(0.167750440204891 0 0.00339065349549752)
(0.20589437380969 0 -0.00448506323930518)
(0.210971750044228 0 0.00442018499421221)
(0.193327166660049 0 -0.00408549310721995)
(0.195069123506315 0 0.00404745809748705)
(0.221782776417094 -7.99617392794397e-21 -0.00464327585617139)
(0.218266257343574 4.67753560911913e-21 0.00466776003846321)
(0.178942076851865 -5.8572237780025e-21 -0.00352988496711687)
(0.176359911243304 -1.63200499407545e-20 0.00366017263787902)
(0.200392889655418 0 -0.00438678609718045)
(0.207316144446246 0 0.0042228743780258)
(0.216591483655534 0 -0.00444254461021045)
(0.212349202499827 0 0.00450799256950285)
(0.186331662469109 0 -0.0037236594727412)
(0.185070453235531 0 0.00378594419155147)
(0.205626642763654 0 -0.00436849645669704)
(0.21286469567349 0 0.00420209115782565)
(0.228560475857078 0 -0.00463024317818297)
(0.222981749186835 1.79398833272986e-20 0.00479340948891374)
(0.186623653187215 2.47542669525225e-20 -0.00377950989550607)
(0.188416179945982 0 0.00375064711033661)
(0.232624056590107 0 -0.00487955914477312)
(0.237301220131161 0 0.0047438257660185)
(0.215215841964564 6.06056228420442e-19 -0.00426206053487476)
(0.214334927521784 -6.12237178592587e-19 0.00429103358237732)
(0.245329964637195 1.43410629887262e-20 -0.00522308777027838)
(0.251047791090883 0 0.00509180233146904)
(0.260603119621472 -9.23511419605156e-21 -0.00539749944856684)
(0.259710312736941 5.56569875099969e-21 0.00543583153724829)
(0.276274887803298 9.6247694978785e-19 -0.00611728283986134)
(0.303270195292773 -6.44756355811833e-19 0.00534719611490383)
(0.443225603599565 0 -0.00943722317688567)
(0.494686931103576 0 0.00786056900092748)
(0.639820854618049 0 -0.0115888525491244)
(0.656932490176302 -3.04041972514066e-20 0.0110733626198973)
(0.613091006720072 0 -0.0106650657482837)
(0.612984418428796 0 0.0104854578716165)
(0.633894524696855 0 -0.0110543583955077)
(0.639726762552215 4.90359121904225e-18 0.0106615701258335)
(0.628679718331243 -4.89798948227248e-18 -0.0107984765973383)
(0.628447119684973 4.34183754040359e-20 0.0150944582217303)
(0.496460807741927 0 -0.010241158608054)
(0.459055225136358 -1.03061736594344e-20 0.0116472662129386)
(0.387499903434955 -8.69969685374658e-21 -0.00898156115625672)
(0.356908987433297 -1.91096532145578e-18 0.00996673901271252)
(0.262088496525291 1.08940980387641e-18 -0.00626915022921809)
(0.253329685981263 -1.28155504447854e-18 0.00675303496283934)
(0.268184716909657 1.35718151373174e-18 -0.00717096002381196)
(0.262749922048488 -2.71577727446209e-20 0.00739065721361088)
(0.202210328215563 -4.53979095369579e-21 -0.00504823292462856)
(0.195285263382858 -4.38431745756576e-21 0.0051458712637643)
(0.217101812969036 -1.69660147352612e-20 -0.00589825847299796)
(0.219450423007766 0 0.00589341208048514)
(0.19582379218007 1.04770001369705e-20 -0.00517076085478258)
(0.196132346656314 -1.92685144383997e-20 0.00516790011384172)
(0.21824179177102 -1.66733051069807e-20 -0.00579649756614543)
(0.214417767718616 1.68438817770044e-20 0.00585579878124883)
(0.179854762989152 9.13944665506189e-21 -0.00458111923949841)
(0.182119588609837 9.15356880080795e-21 0.0046037059324282)
(0.224393646680103 1.26972760421931e-20 -0.00616563239152597)
(0.227997629401095 -2.24789812134855e-20 0.00603531274711572)
(0.197209780404778 -1.39549070827593e-20 -0.00485144273567772)
(0.193265136553859 1.4129424387984e-20 0.00491211391805548)
(0.208863928365222 1.11232551467158e-20 -0.00549721140267622)
(0.207211386473592 -2.06903606254101e-20 0.00557573428862715)
(0.181772576614738 -4.08094634051463e-21 -0.00455650403600579)
(0.180983848748831 -1.73404220195502e-20 0.00461583111860795)
(0.201184419459967 1.09587668856052e-20 -0.005380087771078)
(0.200628118877369 -2.0083322087322e-20 0.00541607932825621)
(0.178747543195396 9.08628974384002e-21 -0.00455399724423087)
(0.178924037491505 -1.71731619501816e-20 0.00457375988347383)
(0.203131519992457 0 -0.00548254747512271)
(0.211238252553419 0 0.00522282878820633)
(0.229486666140496 1.17944520758331e-20 -0.00589151573576374)
(0.224585362050642 -5.04212917296242e-21 0.00607941485640126)
(0.190757455468947 9.67962909931529e-21 -0.00485401062797547)
(0.193479149440616 -4.34376868931695e-21 0.00487453471721618)
(0.238008774227846 1.34538934429953e-20 -0.00653493842172984)
(0.244042740608296 -2.36793542886074e-20 0.00632739098226023)
(0.220032167443719 1.04753782838172e-20 -0.00535914493915541)
(0.207389736024884 -1.08462394017254e-18 0.00570350964333027)
(0.171317514223511 7.80006701589812e-19 -0.00432933731224511)
(0.170336474429028 -3.8241962837476e-21 0.00446301312160138)
(0.19734477400901 0 -0.00557685218957322)
(0.204990720633304 1.53132475273559e-20 0.00532367166872859)
(0.215585902654668 0 -0.00561391672734853)
(0.212125340451327 -1.62679387778859e-20 0.00565557140154167)
(0.187164536988683 9.22873691044424e-21 -0.00466921437577947)
(0.186237471878356 -4.18118697266157e-21 0.00473436654718669)
(0.206801085428725 1.12108005147205e-20 -0.00551154604924952)
(0.206894367472535 -4.64495155173846e-21 0.00552619909328472)
(0.186252679976317 -1.76740865183212e-20 -0.00469070647664059)
(0.187416887039677 -1.76733206402344e-20 0.00468135350715734)
(0.211983539614691 -4.75920772181961e-21 -0.00559439793861939)
(0.209567632908628 -2.10869718551914e-20 0.00569522607608359)
(0.178674355860418 -4.01138869389421e-21 -0.00455601978046704)
(0.182136941123188 -1.72296823879486e-20 0.00456833237257199)
(0.224398057202747 -5.03792402250565e-21 -0.00616895500168429)
(0.223101233572474 -2.2875860747633e-20 0.00621150514966892)
(0.171645328279769 -3.85358114714076e-21 -0.00426208952329537)
(0.16774438847117 -1.59980175593707e-20 0.00425247719041845)
(0.205899976891596 -4.62262665170183e-21 -0.00567992837045817)
(0.21097395200472 1.13127974264409e-20 0.00557957490824179)
(0.19332511565765 -4.3403105020886e-21 -0.00510855278800697)
(0.195066071349438 -4.37939641313039e-21 0.00505621561576592)
(0.221786178761866 0 -0.00586638149664293)
(0.218272311603977 0 0.0059135145635588)
(0.178936664301639 0 -0.00443338678769285)
(0.176355036971626 -1.33130669215911e-20 0.00462830611650149)
(0.200396068045723 1.1707508013578e-20 -0.00563423552569667)
(0.207315988038087 -4.65441728598792e-21 0.00540558554028671)
(0.216592842892257 -4.86269043463151e-21 -0.00563818889341415)
(0.212353181137996 -4.76750648310651e-21 0.00570055207296127)
(0.186327727177363 -1.76634993937706e-20 -0.00468644009993261)
(0.185066945051094 -1.78470279647301e-20 0.00476008454677534)
(0.205628903921337 -4.61654083685235e-21 -0.0055219958815257)
(0.212863272223298 -2.00092214852871e-20 0.00529482199379523)
(0.228563704300447 -5.13144628310091e-21 -0.00585943534156895)
(0.222986386888942 0 0.00607203079687937)
(0.186618141084668 1.36434779626158e-20 -0.00474317397160512)
(0.188409685144104 -1.79900913090484e-20 0.00478373041503478)
(0.232629811582942 -5.2227337916111e-21 -0.00643409296630332)
(0.237304918143691 -2.33494616092354e-20 0.0062652924734156)
(0.215212840752787 -2.19807557911362e-18 -0.00544629841406787)
(0.214329881813639 2.17631011867017e-18 0.00539663910313118)
(0.245334316499334 -5.50796055030143e-21 -0.00660288900589346)
(0.251046857224186 -5.63621186631553e-21 0.0064240625575631)
(0.260604982574192 0 -0.0068126994669553)
(0.259706438436316 0 0.00686059601106923)
(0.276274359621434 -3.02587963984916e-18 -0.00769426761924338)
(0.303252132883077 2.86275748981151e-18 0.00669174554611441)
(0.443239386985652 -9.95109486798328e-21 -0.0120008605125987)
(0.494674897298864 -1.11058650841206e-20 0.0100192907611061)
(0.639838592583974 -1.4364911426985e-20 -0.0149490562550856)
(0.656937855388168 -5.58861094964161e-20 0.0143014410546008)
(0.613087506988874 -1.37643271865168e-20 -0.0135499944137457)
(0.612982092024267 2.47282903811499e-20 0.0133811889310054)
(0.633895787443915 -1.42314904823058e-20 -0.014226777311064)
(0.639728149853854 -2.28223267398975e-18 0.0138331297770379)
(0.628680297987252 2.36612036060776e-18 -0.0139228755225855)
(0.62831552720758 0 0.0188982215398054)
(0.496443155569585 0 -0.0130658474608733)
(0.459062536690156 -4.44032504536019e-20 0.0147352226738589)
(0.387490289463052 0 -0.0110206035639058)
(0.356923201822867 0 0.0120786859776755)
(0.262072069373334 2.26561430838501e-20 -0.00751844312884662)
(0.253324413818095 -2.47356381281573e-20 0.00820852374713541)
(0.268188453244964 2.71454840070519e-20 -0.00900823131972174)
(0.262761293305319 0 0.00925680305504833)
(0.202198264176535 1.46310377038412e-18 -0.00613119730625226)
(0.195280915191589 -1.3432606991224e-18 0.00617732860474754)
(0.217105691456215 0 -0.00714029011972005)
(0.219454319302117 0 0.00711403051846445)
(0.195819944309271 0 -0.00617360937127435)
(0.196129004083391 0 0.00616746204514941)
(0.218245505638566 0 -0.0070012343059023)
(0.214424037757544 0 0.00709582480988283)
(0.179848378721431 0 -0.00549755110787419)
(0.182110914551439 0 0.0056066738758321)
(0.224401422515263 0 -0.00776144646926454)
(0.228004753455446 0 0.00760769536593135)
(0.197203492508435 0 -0.0059298631835194)
(0.193261921028621 0 0.00591432855198044)
(0.208867365302564 0 -0.00664936354280098)